# vtk DataFile Version 2.0
Velocidad
ASCII

DATASET STRUCTURED_GRID
DIMENSIONS   40   40   30

POINTS   48000   double
0.0125   0.0125   0.0166667
0.0375   0.0125   0.0166667
0.0625   0.0125   0.0166667
0.0875   0.0125   0.0166667
0.1125   0.0125   0.0166667
0.1375   0.0125   0.0166667
0.1625   0.0125   0.0166667
0.1875   0.0125   0.0166667
0.2125   0.0125   0.0166667
0.2375   0.0125   0.0166667
0.2625   0.0125   0.0166667
0.2875   0.0125   0.0166667
0.3125   0.0125   0.0166667
0.3375   0.0125   0.0166667
0.3625   0.0125   0.0166667
0.3875   0.0125   0.0166667
0.4125   0.0125   0.0166667
0.4375   0.0125   0.0166667
0.4625   0.0125   0.0166667
0.4875   0.0125   0.0166667
0.5125   0.0125   0.0166667
0.5375   0.0125   0.0166667
0.5625   0.0125   0.0166667
0.5875   0.0125   0.0166667
0.6125   0.0125   0.0166667
0.6375   0.0125   0.0166667
0.6625   0.0125   0.0166667
0.6875   0.0125   0.0166667
0.7125   0.0125   0.0166667
0.7375   0.0125   0.0166667
0.7625   0.0125   0.0166667
0.7875   0.0125   0.0166667
0.8125   0.0125   0.0166667
0.8375   0.0125   0.0166667
0.8625   0.0125   0.0166667
0.8875   0.0125   0.0166667
0.9125   0.0125   0.0166667
0.9375   0.0125   0.0166667
0.9625   0.0125   0.0166667
0.9875   0.0125   0.0166667
0.0125   0.0375   0.0166667
0.0375   0.0375   0.0166667
0.0625   0.0375   0.0166667
0.0875   0.0375   0.0166667
0.1125   0.0375   0.0166667
0.1375   0.0375   0.0166667
0.1625   0.0375   0.0166667
0.1875   0.0375   0.0166667
0.2125   0.0375   0.0166667
0.2375   0.0375   0.0166667
0.2625   0.0375   0.0166667
0.2875   0.0375   0.0166667
0.3125   0.0375   0.0166667
0.3375   0.0375   0.0166667
0.3625   0.0375   0.0166667
0.3875   0.0375   0.0166667
0.4125   0.0375   0.0166667
0.4375   0.0375   0.0166667
0.4625   0.0375   0.0166667
0.4875   0.0375   0.0166667
0.5125   0.0375   0.0166667
0.5375   0.0375   0.0166667
0.5625   0.0375   0.0166667
0.5875   0.0375   0.0166667
0.6125   0.0375   0.0166667
0.6375   0.0375   0.0166667
0.6625   0.0375   0.0166667
0.6875   0.0375   0.0166667
0.7125   0.0375   0.0166667
0.7375   0.0375   0.0166667
0.7625   0.0375   0.0166667
0.7875   0.0375   0.0166667
0.8125   0.0375   0.0166667
0.8375   0.0375   0.0166667
0.8625   0.0375   0.0166667
0.8875   0.0375   0.0166667
0.9125   0.0375   0.0166667
0.9375   0.0375   0.0166667
0.9625   0.0375   0.0166667
0.9875   0.0375   0.0166667
0.0125   0.0625   0.0166667
0.0375   0.0625   0.0166667
0.0625   0.0625   0.0166667
0.0875   0.0625   0.0166667
0.1125   0.0625   0.0166667
0.1375   0.0625   0.0166667
0.1625   0.0625   0.0166667
0.1875   0.0625   0.0166667
0.2125   0.0625   0.0166667
0.2375   0.0625   0.0166667
0.2625   0.0625   0.0166667
0.2875   0.0625   0.0166667
0.3125   0.0625   0.0166667
0.3375   0.0625   0.0166667
0.3625   0.0625   0.0166667
0.3875   0.0625   0.0166667
0.4125   0.0625   0.0166667
0.4375   0.0625   0.0166667
0.4625   0.0625   0.0166667
0.4875   0.0625   0.0166667
0.5125   0.0625   0.0166667
0.5375   0.0625   0.0166667
0.5625   0.0625   0.0166667
0.5875   0.0625   0.0166667
0.6125   0.0625   0.0166667
0.6375   0.0625   0.0166667
0.6625   0.0625   0.0166667
0.6875   0.0625   0.0166667
0.7125   0.0625   0.0166667
0.7375   0.0625   0.0166667
0.7625   0.0625   0.0166667
0.7875   0.0625   0.0166667
0.8125   0.0625   0.0166667
0.8375   0.0625   0.0166667
0.8625   0.0625   0.0166667
0.8875   0.0625   0.0166667
0.9125   0.0625   0.0166667
0.9375   0.0625   0.0166667
0.9625   0.0625   0.0166667
0.9875   0.0625   0.0166667
0.0125   0.0875   0.0166667
0.0375   0.0875   0.0166667
0.0625   0.0875   0.0166667
0.0875   0.0875   0.0166667
0.1125   0.0875   0.0166667
0.1375   0.0875   0.0166667
0.1625   0.0875   0.0166667
0.1875   0.0875   0.0166667
0.2125   0.0875   0.0166667
0.2375   0.0875   0.0166667
0.2625   0.0875   0.0166667
0.2875   0.0875   0.0166667
0.3125   0.0875   0.0166667
0.3375   0.0875   0.0166667
0.3625   0.0875   0.0166667
0.3875   0.0875   0.0166667
0.4125   0.0875   0.0166667
0.4375   0.0875   0.0166667
0.4625   0.0875   0.0166667
0.4875   0.0875   0.0166667
0.5125   0.0875   0.0166667
0.5375   0.0875   0.0166667
0.5625   0.0875   0.0166667
0.5875   0.0875   0.0166667
0.6125   0.0875   0.0166667
0.6375   0.0875   0.0166667
0.6625   0.0875   0.0166667
0.6875   0.0875   0.0166667
0.7125   0.0875   0.0166667
0.7375   0.0875   0.0166667
0.7625   0.0875   0.0166667
0.7875   0.0875   0.0166667
0.8125   0.0875   0.0166667
0.8375   0.0875   0.0166667
0.8625   0.0875   0.0166667
0.8875   0.0875   0.0166667
0.9125   0.0875   0.0166667
0.9375   0.0875   0.0166667
0.9625   0.0875   0.0166667
0.9875   0.0875   0.0166667
0.0125   0.1125   0.0166667
0.0375   0.1125   0.0166667
0.0625   0.1125   0.0166667
0.0875   0.1125   0.0166667
0.1125   0.1125   0.0166667
0.1375   0.1125   0.0166667
0.1625   0.1125   0.0166667
0.1875   0.1125   0.0166667
0.2125   0.1125   0.0166667
0.2375   0.1125   0.0166667
0.2625   0.1125   0.0166667
0.2875   0.1125   0.0166667
0.3125   0.1125   0.0166667
0.3375   0.1125   0.0166667
0.3625   0.1125   0.0166667
0.3875   0.1125   0.0166667
0.4125   0.1125   0.0166667
0.4375   0.1125   0.0166667
0.4625   0.1125   0.0166667
0.4875   0.1125   0.0166667
0.5125   0.1125   0.0166667
0.5375   0.1125   0.0166667
0.5625   0.1125   0.0166667
0.5875   0.1125   0.0166667
0.6125   0.1125   0.0166667
0.6375   0.1125   0.0166667
0.6625   0.1125   0.0166667
0.6875   0.1125   0.0166667
0.7125   0.1125   0.0166667
0.7375   0.1125   0.0166667
0.7625   0.1125   0.0166667
0.7875   0.1125   0.0166667
0.8125   0.1125   0.0166667
0.8375   0.1125   0.0166667
0.8625   0.1125   0.0166667
0.8875   0.1125   0.0166667
0.9125   0.1125   0.0166667
0.9375   0.1125   0.0166667
0.9625   0.1125   0.0166667
0.9875   0.1125   0.0166667
0.0125   0.1375   0.0166667
0.0375   0.1375   0.0166667
0.0625   0.1375   0.0166667
0.0875   0.1375   0.0166667
0.1125   0.1375   0.0166667
0.1375   0.1375   0.0166667
0.1625   0.1375   0.0166667
0.1875   0.1375   0.0166667
0.2125   0.1375   0.0166667
0.2375   0.1375   0.0166667
0.2625   0.1375   0.0166667
0.2875   0.1375   0.0166667
0.3125   0.1375   0.0166667
0.3375   0.1375   0.0166667
0.3625   0.1375   0.0166667
0.3875   0.1375   0.0166667
0.4125   0.1375   0.0166667
0.4375   0.1375   0.0166667
0.4625   0.1375   0.0166667
0.4875   0.1375   0.0166667
0.5125   0.1375   0.0166667
0.5375   0.1375   0.0166667
0.5625   0.1375   0.0166667
0.5875   0.1375   0.0166667
0.6125   0.1375   0.0166667
0.6375   0.1375   0.0166667
0.6625   0.1375   0.0166667
0.6875   0.1375   0.0166667
0.7125   0.1375   0.0166667
0.7375   0.1375   0.0166667
0.7625   0.1375   0.0166667
0.7875   0.1375   0.0166667
0.8125   0.1375   0.0166667
0.8375   0.1375   0.0166667
0.8625   0.1375   0.0166667
0.8875   0.1375   0.0166667
0.9125   0.1375   0.0166667
0.9375   0.1375   0.0166667
0.9625   0.1375   0.0166667
0.9875   0.1375   0.0166667
0.0125   0.1625   0.0166667
0.0375   0.1625   0.0166667
0.0625   0.1625   0.0166667
0.0875   0.1625   0.0166667
0.1125   0.1625   0.0166667
0.1375   0.1625   0.0166667
0.1625   0.1625   0.0166667
0.1875   0.1625   0.0166667
0.2125   0.1625   0.0166667
0.2375   0.1625   0.0166667
0.2625   0.1625   0.0166667
0.2875   0.1625   0.0166667
0.3125   0.1625   0.0166667
0.3375   0.1625   0.0166667
0.3625   0.1625   0.0166667
0.3875   0.1625   0.0166667
0.4125   0.1625   0.0166667
0.4375   0.1625   0.0166667
0.4625   0.1625   0.0166667
0.4875   0.1625   0.0166667
0.5125   0.1625   0.0166667
0.5375   0.1625   0.0166667
0.5625   0.1625   0.0166667
0.5875   0.1625   0.0166667
0.6125   0.1625   0.0166667
0.6375   0.1625   0.0166667
0.6625   0.1625   0.0166667
0.6875   0.1625   0.0166667
0.7125   0.1625   0.0166667
0.7375   0.1625   0.0166667
0.7625   0.1625   0.0166667
0.7875   0.1625   0.0166667
0.8125   0.1625   0.0166667
0.8375   0.1625   0.0166667
0.8625   0.1625   0.0166667
0.8875   0.1625   0.0166667
0.9125   0.1625   0.0166667
0.9375   0.1625   0.0166667
0.9625   0.1625   0.0166667
0.9875   0.1625   0.0166667
0.0125   0.1875   0.0166667
0.0375   0.1875   0.0166667
0.0625   0.1875   0.0166667
0.0875   0.1875   0.0166667
0.1125   0.1875   0.0166667
0.1375   0.1875   0.0166667
0.1625   0.1875   0.0166667
0.1875   0.1875   0.0166667
0.2125   0.1875   0.0166667
0.2375   0.1875   0.0166667
0.2625   0.1875   0.0166667
0.2875   0.1875   0.0166667
0.3125   0.1875   0.0166667
0.3375   0.1875   0.0166667
0.3625   0.1875   0.0166667
0.3875   0.1875   0.0166667
0.4125   0.1875   0.0166667
0.4375   0.1875   0.0166667
0.4625   0.1875   0.0166667
0.4875   0.1875   0.0166667
0.5125   0.1875   0.0166667
0.5375   0.1875   0.0166667
0.5625   0.1875   0.0166667
0.5875   0.1875   0.0166667
0.6125   0.1875   0.0166667
0.6375   0.1875   0.0166667
0.6625   0.1875   0.0166667
0.6875   0.1875   0.0166667
0.7125   0.1875   0.0166667
0.7375   0.1875   0.0166667
0.7625   0.1875   0.0166667
0.7875   0.1875   0.0166667
0.8125   0.1875   0.0166667
0.8375   0.1875   0.0166667
0.8625   0.1875   0.0166667
0.8875   0.1875   0.0166667
0.9125   0.1875   0.0166667
0.9375   0.1875   0.0166667
0.9625   0.1875   0.0166667
0.9875   0.1875   0.0166667
0.0125   0.2125   0.0166667
0.0375   0.2125   0.0166667
0.0625   0.2125   0.0166667
0.0875   0.2125   0.0166667
0.1125   0.2125   0.0166667
0.1375   0.2125   0.0166667
0.1625   0.2125   0.0166667
0.1875   0.2125   0.0166667
0.2125   0.2125   0.0166667
0.2375   0.2125   0.0166667
0.2625   0.2125   0.0166667
0.2875   0.2125   0.0166667
0.3125   0.2125   0.0166667
0.3375   0.2125   0.0166667
0.3625   0.2125   0.0166667
0.3875   0.2125   0.0166667
0.4125   0.2125   0.0166667
0.4375   0.2125   0.0166667
0.4625   0.2125   0.0166667
0.4875   0.2125   0.0166667
0.5125   0.2125   0.0166667
0.5375   0.2125   0.0166667
0.5625   0.2125   0.0166667
0.5875   0.2125   0.0166667
0.6125   0.2125   0.0166667
0.6375   0.2125   0.0166667
0.6625   0.2125   0.0166667
0.6875   0.2125   0.0166667
0.7125   0.2125   0.0166667
0.7375   0.2125   0.0166667
0.7625   0.2125   0.0166667
0.7875   0.2125   0.0166667
[...]
POINT_DATA   48000
VECTORS Velocidad double

0.000560367 2.68799e-07 -1.7224e-08
0.00166931 5.56206e-07 -2.16659e-08
0.00274229 7.05445e-07 -2.39836e-08
0.00375596 7.57854e-07 -2.49747e-08
0.00469005 7.43878e-07 -2.49073e-08
0.00552806 6.84818e-07 -2.37895e-08
0.00625836 5.95998e-07 -2.15715e-08
0.00687504 4.88832e-07 -1.82638e-08
0.00737831 3.72619e-07 -1.40121e-08
0.00777487 2.56865e-07 -9.12853e-09
0.00807505 1.54914e-07 0
0.00829219 9.95493e-08 0
0.00844262 7.26717e-08 0
0.0085422 7.49297e-08 0
0.008605 1.20984e-07 0
0.00864258 2.47569e-07 0
0.00866354 5.30801e-07 0
0.0086736 1.11519e-06 0
0.00867538 2.2656e-06 0
0.00875506 4.44043e-06 0
0.00870813 9.02107e-06 0
0.00860509 1.21234e-05 0
0.00863118 9.59585e-06 0
0.00863629 7.97121e-06 0
0.00864367 6.58448e-06 0
0.0086505 5.288e-06 0
0.00865544 4.07597e-06 0
0.00865671 2.99061e-06 0
0.00865164 2.06758e-06 0
0.00863708 1.33496e-06 0
0.00860341 8.14635e-07 0
0.00852921 4.14258e-07 0
0.00838642 1.33701e-07 0
0.00813469 -1.68256e-07 0
0.00771445 -5.07711e-07 0
0.00705225 -8.90193e-07 0
0.00607335 -1.31538e-06 0
0.00472711 -1.78447e-06 0
0.00302072 -2.2598e-06 0
0.00104155 -2.6303e-06 0
0.00163431 7.71461e-07 -2.82293e-08
0.00487031 1.59183e-06 -3.87811e-08
0.00800538 2.02076e-06 -4.53056e-08
0.0109727 2.17517e-06 -4.89908e-08
0.0137144 2.14051e-06 -5.03099e-08
0.0161825 1.97616e-06 -4.92746e-08
0.0183421 1.72478e-06 -4.57586e-08
0.0201743 1.41833e-06 -3.9769e-08
0.0216774 1.08345e-06 -3.16454e-08
0.0228673 7.48365e-07 -2.21564e-08
0.0237729 4.53773e-07 0
0.0244327 2.95185e-07 0
0.0248928 2.18698e-07 0
0.0251994 2.33172e-07 0
0.025394 3.85643e-07 0
0.0255112 7.93275e-07 0
0.0255773 1.69758e-06 0
0.0256101 3.54921e-06 0
0.0256196 7.13912e-06 0
0.0257181 1.37131e-05 0
0.0256633 2.66908e-05 0
0.0255193 3.24582e-05 0
0.0255324 3.08061e-05 0
0.0255428 2.75767e-05 0
0.0255574 2.34839e-05 0
0.0255716 1.90741e-05 0
0.0255815 1.47706e-05 0
0.0255824 1.08594e-05 0
0.0255668 7.50906e-06 0
0.0255233 4.84769e-06 0
0.0254242 3.14752e-06 0
0.025215 1.80786e-06 0
0.024815 7.84243e-07 0
0.0241027 -2.09353e-07 0
0.0229019 -1.25148e-06 0
0.0209891 -2.35885e-06 0
0.0181292 -3.49942e-06 0
0.0141523 -4.57362e-06 0
0.00906238 -5.28515e-06 0
0.0031271 -4.82037e-06 0
0.00259127 1.148e-06 -3.26456e-08
0.00772601 2.37993e-06 -4.6569e-08
0.0127098 3.03293e-06 -5.60861e-08
0.01744 3.2772e-06 -6.21373e-08
0.0218276 3.23773e-06 -6.51176e-08
0.0257971 3.00133e-06 -6.49382e-08
0.0292916 2.6304e-06 -6.13622e-08
0.0322769 2.17211e-06 -5.43523e-08
0.034745 1.66675e-06 -4.43564e-08
0.0367149 1.15874e-06 -3.24871e-08
0.0382273 7.13207e-07 -4.65231e-09
0.0393399 4.74333e-07 -2.15868e-09
0.0401234 3.66441e-07 -1.91986e-10
0.0406504 4.16345e-07 -5.26147e-10
0.0409882 7.17923e-07 -5.56198e-09
0.0411939 1.49516e-06 -2.14535e-08
0.0413115 3.20266e-06 -6.7026e-08
0.0413719 6.67665e-06 -1.95634e-07
0.0413939 1.33463e-05 -5.9234e-07
0.0415044 2.53368e-05 -1.69416e-06
0.041448 4.82471e-05 -7.88755e-06
0.0412873 5.5363e-05 -6.87192e-06
0.0412906 5.73127e-05 -4.9851e-06
0.0412978 5.31904e-05 -3.4142e-06
0.0413144 4.59076e-05 -2.30011e-06
0.0413323 3.74152e-05 -1.53691e-06
0.0413456 2.89744e-05 -1.01389e-06
0.0413468 2.13046e-05 -6.47234e-07
0.0413247 1.47959e-05 -3.74678e-07
0.0412616 9.75535e-06 -1.4654e-07
0.0411158 7.03142e-06 1.60579e-07
0.0408064 4.48584e-06 2.05368e-07
0.0402099 2.48243e-06 2.00553e-07
0.0391331 6.32772e-07 1.98555e-07
0.0372897 -1.17925e-06 2.19068e-07
0.0343046 -2.96219e-06 2.77143e-07
0.029764 -4.61715e-06 3.97934e-07
0.0233433 -5.87105e-06 6.31909e-07
0.0150067 -6.11374e-06 1.03312e-06
0.00518997 -4.05108e-06 1.68457e-06
0.00339401 1.35591e-06 -3.43075e-08
0.0101248 2.8364e-06 -5.00493e-08
0.0166709 3.63412e-06 -6.1564e-08
0.022903 3.94457e-06 -6.94784e-08
0.0287085 3.91367e-06 -7.40038e-08
0.0339899 3.64338e-06 -7.49044e-08
0.0386704 3.2072e-06 -7.1815e-08
0.0427001 2.66117e-06 -6.46278e-08
0.0460607 2.05423e-06 -5.38411e-08
0.0487682 1.4418e-06 -4.0807e-08
0.0508677 9.06033e-07 -1.27937e-08
0.0524289 6.21126e-07 -3.98871e-09
0.0535404 5.13298e-07 3.25599e-09
0.0542962 6.38107e-07 1.4307e-09
0.0547861 1.16214e-06 -1.68676e-08
0.0550878 2.46373e-06 -7.1151e-08
0.0552627 5.29832e-06 -2.18041e-07
0.0553552 1.10484e-05 -6.08111e-07
0.0553934 2.20761e-05 -1.62457e-06
0.0555176 4.19075e-05 -4.17658e-06
0.0554628 8.01457e-05 -1.1352e-05
0.0552902 9.1185e-05 -1.24161e-05
0.0552844 9.27189e-05 -1.12702e-05
0.0552864 8.54682e-05 -8.72136e-06
0.0553022 7.33076e-05 -6.30313e-06
0.0553222 5.93612e-05 -4.38588e-06
0.0553385 4.57052e-05 -2.96135e-06
0.0553418 3.35188e-05 -1.91515e-06
0.0553181 2.34471e-05 -1.12334e-06
0.0552469 1.60522e-05 -4.79305e-07
0.0550752 1.31241e-05 7.10808e-08
0.0547041 9.10859e-06 4.25519e-07
0.0539791 5.89129e-06 5.2096e-07
0.0526479 2.92428e-06 5.32665e-07
0.0503276 1.57832e-07 5.41328e-07
0.0464966 -2.37382e-06 5.8209e-07
0.0405506 -4.51939e-06 6.60878e-07
0.0319762 -5.9202e-06 7.32567e-07
0.0206529 -5.89399e-06 6.41384e-07
0.0071624 -3.42046e-06 -2.13248e-07
0.0040331 1.42437e-06 -3.49787e-08
0.0120373 2.99903e-06 -5.1873e-08
0.0198367 3.85987e-06 -6.48055e-08
0.0272835 4.20644e-06 -7.41593e-08
0.0342494 4.18984e-06 -7.99758e-08
0.0406199 3.91608e-06 -8.18831e-08
0.046302 3.46187e-06 -7.94011e-08
0.0512309 2.88617e-06 -7.23503e-08
0.0553763 2.24152e-06 -6.12492e-08
0.0587468 1.58907e-06 -4.7627e-08
0.0613864 1.02077e-06 -2.00473e-08
0.0633698 7.27766e-07 -7.418e-09
0.0647971 6.56639e-07 2.4919e-09
0.0657783 9.09136e-07 -1.34464e-09
0.0664211 1.75643e-06 -3.21108e-08
0.0668214 3.79329e-06 -1.22779e-07
0.0670563 8.19437e-06 -3.64149e-07
0.0671831 1.7106e-05 -9.83146e-07
0.0672393 3.42131e-05 -2.51646e-06
0.0673817 6.50719e-05 -6.06768e-06
0.0673288 0.00012533 -1.52253e-05
0.0671405 0.000140459 -1.68378e-05
0.0671255 0.000139928 -1.56089e-05
0.0671215 0.000126882 -1.24962e-05
0.0671358 0.000107356 -9.25052e-06
0.0671577 8.59249e-05 -6.52849e-06
0.0671778 6.5549e-05 -4.43674e-06
0.0671852 4.78634e-05 -2.87384e-06
0.0671643 3.37862e-05 -1.68744e-06
0.0670948 2.42513e-05 -7.41943e-07
0.0669144 2.27047e-05 3.08251e-08
0.0665128 1.68246e-05 5.47078e-07
0.0657172 1.18697e-05 7.31195e-07
0.06423 7.24327e-06 7.62938e-07
0.0615887 3.09723e-06 7.56572e-07
0.0571394 -4.61294e-07 7.63728e-07
0.0500894 -3.27415e-06 7.85645e-07
0.0397161 -5.00907e-06 7.66776e-07
0.0257759 -5.08394e-06 5.72881e-07
0.00896473 -2.80081e-06 9.09422e-08
0.00451864 1.38686e-06 -3.53934e-08
0.0134922 2.93238e-06 -5.3313e-08
0.0222505 3.78669e-06 -6.74155e-08
0.0306343 4.13982e-06 -7.79272e-08
0.0385049 4.13684e-06 -8.47749e-08
0.0457362 3.87975e-06 -8.74935e-08
0.0522226 3.44248e-06 -8.55209e-08
0.0578866 2.88226e-06 -7.86236e-08
0.0626859 2.2512e-06 -6.7333e-08
0.0666204 1.6118e-06 -5.33185e-08
0.069729 1.06013e-06 -2.71507e-08
0.0720869 7.94704e-07 -1.37736e-08
0.0738001 7.97479e-07 -3.37623e-09
0.0749893 1.23471e-06 -8.76485e-09
0.0757761 2.51663e-06 -4.70286e-08
0.0762707 5.52197e-06 -1.61208e-07
0.076564 1.19742e-05 -4.65195e-07
0.0767246 2.50215e-05 -1.23628e-06
0.0767983 5.00934e-05 -3.11101e-06
0.0769644 9.54349e-05 -7.3681e-06
0.0769111 0.000185013 -1.80804e-05
0.0766989 0.000203318 -2.01325e-05
0.0766735 0.000198688 -1.87867e-05
0.0766631 0.000177001 -1.51996e-05
0.0766763 0.00014743 -1.13655e-05
0.076701 0.000116402 -8.07976e-06
0.0767262 8.78511e-05 -5.51556e-06
0.0767398 6.38546e-05 -3.58293e-06
0.076725 4.56395e-05 -2.11508e-06
0.0766648 3.4728e-05 -9.58054e-07
0.0764867 3.74792e-05 -4.29622e-08
0.0760746 2.89897e-05 5.71668e-07
0.0752498 2.13729e-05 8.08841e-07
0.0736807 1.41581e-05 8.57024e-07
0.0708435 7.90698e-06 8.42039e-07
0.0659736 2.82412e-06 8.23856e-07
0.0581055 -9.89948e-07 8.07739e-07
0.0463074 -3.33787e-06 7.48251e-07
0.0301899 -3.84126e-06 5.58663e-07
0.0105284 -2.12349e-06 1.73879e-07
0.00487192 1.27833e-06 -3.58396e-08
0.0145519 2.709e-06 -5.49018e-08
0.0240125 3.50577e-06 -7.01148e-08
0.0330873 3.84128e-06 -8.16149e-08
0.0416316 3.84783e-06 -8.92748e-08
0.0495118 3.61831e-06 -9.25846e-08
0.0566131 3.22006e-06 -9.09395e-08
0.0628478 2.70558e-06 -8.40778e-08
0.0681637 2.1238e-06 -7.25509e-08
0.0725516 1.53543e-06 -5.81522e-08
0.0760442 1.0367e-06 -3.37247e-08
0.0787144 8.27093e-07 -2.0485e-08
0.0806701 9.34228e-07 -1.02496e-08
0.0820388 1.60329e-06 -1.70902e-08
0.0829518 3.41135e-06 -6.09108e-08
0.0835304 7.57583e-06 -1.92865e-07
0.0838764 1.64755e-05 -5.45826e-07
0.0840674 3.446e-05 -1.43974e-06
0.0841566 6.90698e-05 -3.6037e-06
0.0843524 0.000131828 -8.49989e-06
0.0842942 0.00025732 -2.073e-05
0.0840456 0.000276575 -2.34402e-05
0.0840088 0.000265112 -2.19759e-05
0.0839919 0.000231966 -1.78868e-05
0.0840052 0.000190112 -1.34527e-05
0.0840344 0.000147999 -9.60909e-06
0.0840667 0.000110492 -6.58329e-06
0.0840883 8.00347e-05 -4.29236e-06
0.0840818 5.82304e-05 -2.55609e-06
0.0840371 4.75431e-05 -1.20622e-06
0.0838664 5.91921e-05 -1.87684e-07
0.0834523 4.67748e-05 5.08132e-07
0.0826236 3.50854e-05 7.94678e-07
0.0810211 2.39623e-05 8.64407e-07
0.0780773 1.46258e-05 8.48341e-07
0.0729398 7.36984e-06 8.13212e-07
0.064497 2.14279e-06 7.71538e-07
0.0516269 -1.10672e-06 6.91961e-07
0.0337905 -2.29262e-06 5.13985e-07
0.0118122 -1.37677e-06 1.9417e-07
0.00511863 1.12966e-06 -3.64011e-08
0.0152927 2.39537e-06 -5.67752e-08
0.0252463 3.10315e-06 -7.31063e-08
0.0348094 3.40457e-06 -8.5487e-08
0.0438339 3.41575e-06 -9.3785e-08
0.0521813 3.21795e-06 -9.74879e-08
0.0597307 2.86997e-06 -9.59831e-08
0.0663871 2.418e-06 -8.90063e-08
0.0720901 1.90616e-06 -7.7142e-08
0.0768229 1.39142e-06 -6.23067e-08
0.0806122 9.6738e-07 -3.95176e-08
0.0835271 8.29978e-07 -2.66379e-08
0.0856758 1.05595e-06 -1.68587e-08
0.0871896 1.97335e-06 -2.5622e-08
0.0882058 4.33272e-06 -7.5698e-08
0.0888539 9.70341e-06 -2.26841e-07
0.0892439 2.11487e-05 -6.32772e-07
0.0894604 4.42884e-05 -1.66182e-06
0.0895617 8.89402e-05 -4.15173e-06
0.0897941 0.000170245 -9.78812e-06
0.0897244 0.000335247 -2.38354e-05
0.0894237 0.000351424 -2.73704e-05
0.0893746 0.000330013 -2.58015e-05
0.0893522 0.000283434 -2.11163e-05
0.0893676 0.000228529 -1.59577e-05
0.0894035 0.000175455 -1.14416e-05
0.0894449 0.000129676 -7.86256e-06
0.0894764 9.38289e-05 -5.14571e-06
0.0894795 6.99828e-05 -3.09575e-06
0.0894559 6.20148e-05 -1.53135e-06
0.0892926 8.85202e-05 -4.32841e-07
0.0888755 7.01629e-05 3.53132e-07
0.088056 5.2648e-05 7.02106e-07
0.0864483 3.61579e-05 8.08365e-07
0.083455 2.27543e-05 8.04223e-07
0.0781582 1.2732e-05 7.63835e-07
0.0693314 5.7532e-06 7.08684e-07
0.0556931 1.39913e-06 6.20303e-07
0.0365687 -6.14264e-07 4.56151e-07
0.0128083 -6.11495e-07 1.81678e-07
0.00528416 9.65264e-07 -3.70757e-08
0.0157902 2.04504e-06 -5.88806e-08
0.0260762 2.64945e-06 -7.63305e-08
0.0359703 2.90805e-06 -8.95055e-08
0.0453225 2.91981e-06 -9.83031e-08
0.0539917 2.75363e-06 -1.02239e-07
0.0618531 2.45921e-06 -1.00719e-07
0.0688062 2.07584e-06 -9.34976e-08
0.0747848 1.64212e-06 -8.12051e-08
0.0797663 1.20995e-06 -6.58897e-08
0.0837721 8.67943e-07 -4.4484e-08
0.0868679 8.03848e-07 -3.20097e-08
0.0891611 1.1373e-06 -2.30378e-08
0.0907846 2.26472e-06 -3.48685e-08
0.0918798 5.07802e-06 -9.4232e-08
0.0925817 1.14333e-05 -2.72178e-07
0.093006 2.49601e-05 -7.5e-07
0.0932422 5.23606e-05 -1.95992e-06
0.093352 0.000105496 -4.88231e-06
0.0936287 0.000202955 -1.14921e-05
0.0935388 0.00040503 -2.79299e-05
0.0931686 0.000411898 -3.24279e-05
0.0931082 0.000377954 -3.07064e-05
0.0930821 0.000318242 -2.52495e-05
0.0931024 0.000252416 -1.91567e-05
0.0931476 0.000191269 -1.37756e-05
0.0932001 0.000140178 -9.48761e-06
0.0932426 0.000101682 -6.22876e-06
0.0932558 7.84014e-05 -3.78562e-06
0.0932593 7.60665e-05 -1.96517e-06
0.0930991 0.000123013 -8.18567e-07
0.0926707 9.63381e-05 8.90551e-08
0.0918665 7.15571e-05 5.23699e-07
0.090268 4.87928e-05 6.90197e-07
0.0872584 3.0893e-05 7.17656e-07
0.0818734 1.79525e-05 6.88383e-07
0.0728016 9.19937e-06 6.33711e-07
0.0586381 3.76026e-06 5.46728e-07
0.038597 9.46121e-07 3.97867e-07
0.0135391 8.01944e-08 1.60022e-07
0.00539094 8.02554e-07 -3.78326e-08
0.0161113 1.6967e-06 -6.11007e-08
0.0266126 2.19632e-06 -7.96318e-08
0.036722 2.4098e-06 -9.35146e-08
0.0462888 2.41957e-06 -1.02698e-07
0.0551703 2.28258e-06 -1.06746e-07
0.063239 2.03974e-06 -1.051e-07
0.0703913 1.72358e-06 -9.7545e-08
0.0765567 1.36685e-06 -8.47695e-08
0.0817085 1.01533e-06 -6.89636e-08
0.085864 7.49758e-07 -4.86998e-08
0.0890862 7.43047e-07 -3.66974e-08
0.0914813 1.13959e-06 -2.91003e-08
0.0931829 2.36465e-06 -4.58537e-08
0.094335 5.36507e-06 -1.19617e-07
0.0950759 1.21066e-05 -3.37316e-07
0.0955252 2.6448e-05 -9.18468e-07
0.0957758 5.55924e-05 -2.3823e-06
0.0958907 0.000112567 -5.8994e-06
0.0962193 0.000218383 -1.38197e-05
0.0960995 0.000445572 -3.34239e-05
0.0956432 0.000434896 -3.90024e-05
0.0955753 0.000388065 -3.70294e-05
0.0955494 0.000319741 -3.05488e-05
0.0955778 0.000249544 -2.32398e-05
0.0956344 0.000186954 -1.67415e-05
0.0956991 0.000136278 -1.1544e-05
0.095753 9.96297e-05 -7.5956e-06
0.0957757 8.01745e-05 -4.66079e-06
0.0958123 8.55899e-05 -2.53896e-06
0.0956477 0.000154516 -1.40665e-06
0.0951957 0.000118077 -3.21384e-07
0.0944095 8.6255e-05 2.27205e-07
0.0928265 5.80343e-05 4.8754e-07
0.0898182 3.6579e-05 5.76116e-07
0.0843889 2.15164e-05 5.81815e-07
0.0751678 1.15705e-05 5.45849e-07
0.0606613 5.43786e-06 4.72069e-07
0.0399995 2.08944e-06 3.41667e-07
0.0140463 5.85841e-07 1.35193e-07
0.00545717 6.52664e-07 -3.86387e-08
0.0163106 1.37526e-06 -6.33204e-08
0.0269458 1.77728e-06 -8.28539e-08
0.0371898 1.94791e-06 -9.73514e-08
0.0468913 1.95451e-06 -1.06827e-07
0.0559069 1.84321e-06 -1.109e-07
0.0641075 1.64691e-06 -1.09055e-07
0.0713874 1.39184e-06 -1.01119e-07
0.0776736 1.10483e-06 -8.7842e-08
0.0829362 8.24362e-07 -7.1563e-08
0.08719 6.19531e-07 -5.22854e-08
0.0904959 6.3881e-07 -4.09234e-08
0.0929589 1.02168e-06 -3.55361e-08
0.0947129 2.15702e-06 -5.97448e-08
0.0959035 4.90275e-06 -1.54795e-07
0.0966711 1.10331e-05 -4.29532e-07
0.0971379 2.40436e-05 -1.15522e-06
0.0973985 5.05558e-05 -2.96637e-06
0.0975162 0.000102975 -7.27922e-06
0.097902 0.000202344 -1.69126e-05
0.0977424 0.000429203 -4.05626e-05
0.0971892 0.000392746 -4.72942e-05
0.0971224 0.000337807 -4.49515e-05
0.0971021 0.000271682 -3.71543e-05
0.0971416 0.000209036 -2.83047e-05
0.0972103 0.000155537 -2.04024e-05
0.0972866 0.000113496 -1.40705e-05
0.0973507 8.439e-05 -9.2713e-06
0.0973812 7.17422e-05 -5.74472e-06
0.0974547 8.4448e-05 -3.29077e-06
0.0972773 0.000167817 -2.3124e-06
0.0967895 0.000123565 -9.46805e-07
0.0960231 8.84499e-05 -2.56616e-07
0.0944574 5.86287e-05 1.46694e-07
0.0914586 3.66866e-05 3.44608e-07
0.08601 2.16386e-05 4.23105e-07
0.0767021 1.18699e-05 4.32669e-07
0.0619813 5.88353e-06 3.88624e-07
0.0409195 2.52924e-06 2.83375e-07
0.0143801 8.02301e-07 1.07436e-07
0.00549666 5.2171e-07 -3.94691e-08
0.0164295 1.0944e-06 -6.54561e-08
0.0271448 1.4109e-06 -8.58844e-08
0.0374695 1.54367e-06 -1.009e-07
0.0472522 1.54694e-06 -1.10587e-07
0.0563489 1.45745e-06 -1.14625e-07
0.0646298 1.30117e-06 -1.12543e-07
0.0719879 1.09861e-06 -1.04209e-07
0.0783485 8.70711e-07 -9.04318e-08
0.0836799 6.47372e-07 -7.3699e-08
0.0879951 4.8177e-07 -5.53581e-08
0.0913535 4.86558e-07 -4.49053e-08
0.0938594 7.60026e-07 -4.27828e-08
0.0956468 1.57394e-06 -7.74546e-08
0.0968621 3.51645e-06 -2.01757e-07
0.097647 7.78147e-06 -5.53217e-07
0.0981253 1.66992e-05 -1.46948e-06
0.0983928 3.47379e-05 -3.72977e-06
0.0985123 7.07807e-05 -9.05079e-06
0.0989551 0.000141339 -2.0805e-05
0.0987484 0.000323881 -4.93308e-05
0.0981003 0.00025981 -5.72036e-05
0.0980487 0.000210797 -5.43951e-05
0.0980398 0.000165058 -4.50063e-05
0.0980912 0.000126462 -3.43029e-05
0.0981699 9.50086e-05 -2.47186e-05
0.0982546 7.08266e-05 -1.70373e-05
0.0983256 5.48835e-05 -1.12403e-05
0.098361 5.05813e-05 -7.04584e-06
0.0984701 6.60785e-05 -4.27473e-06
0.0982731 0.000143317 -3.66705e-06
0.0977445 9.96464e-05 -1.91887e-06
0.0969986 6.98857e-05 -1.04658e-06
0.0954491 4.58624e-05 -4.18258e-07
0.0924614 2.86592e-05 -3.31705e-08
0.0870063 1.69766e-05 1.78934e-07
0.0776499 9.4043e-06 2.74614e-07
0.0628008 4.74251e-06 2.84596e-07
0.041493 2.09271e-06 2.1639e-07
0.0145887 6.72683e-07 7.5221e-08
0.00551929 4.12239e-07 -4.03105e-08
0.0164977 8.59785e-07 -6.74653e-08
0.027259 1.10489e-06 -8.86686e-08
0.0376301 1.20598e-06 -1.04109e-07
0.0474597 1.20632e-06 -1.13941e-07
0.0566036 1.13483e-06 -1.17901e-07
0.0649313 1.0116e-06 -1.15564e-07
0.0723352 8.52132e-07 -1.06829e-07
0.0787396 6.71632e-07 -9.25575e-08
0.0841117 4.90489e-07 -7.5359e-08
0.0884634 3.42329e-07 -5.79985e-08
0.0918532 2.94166e-07 -4.87636e-08
0.0943849 3.70128e-07 -5.0989e-08
0.0961924 6.51321e-07 -9.90722e-08
0.0974226 1.28899e-06 -2.60217e-07
0.0982182 2.52407e-06 -7.0674e-07
0.0987038 4.70183e-06 -1.85541e-06
0.0989761 8.35483e-06 -4.65471e-06
0.0990975 1.49682e-05 -1.1164e-05
0.0995855 2.89945e-05 -2.53646e-05
0.0993326 9.83487e-05 -5.93468e-05
0.0986167 2.59692e-05 -6.82201e-05
0.0985966 9.25557e-06 -6.49154e-05
0.0986013 6.96237e-06 -5.37515e-05
0.0986604 9.34467e-06 -4.09674e-05
0.0987428 1.15479e-05 -2.94972e-05
0.0988296 1.26643e-05 -2.03132e-05
0.0989022 1.3701e-05 -1.3425e-05
0.0989386 1.71461e-05 -8.54381e-06
0.0990719 2.73037e-05 -5.55485e-06
0.0988559 6.57671e-05 -5.74689e-06
0.098296 3.96521e-05 -3.42032e-06
0.0975682 2.78137e-05 -2.28756e-06
0.0960301 1.88646e-05 -1.30485e-06
0.0930504 1.23273e-05 -6.15431e-07
0.0875927 7.57252e-06 -1.85105e-07
0.0782095 4.24959e-06 5.24249e-08
0.0632863 2.07594e-06 1.49186e-07
0.0418337 8.20623e-07 1.3514e-07
0.0147128 2.18516e-07 3.73997e-08
0.00553175 3.24603e-07 -4.11623e-08
0.0165352 6.7204e-07 -6.93441e-08
0.0273219 8.60074e-07 -9.12065e-08
0.0377187 9.35872e-07 -1.06987e-07
0.0475744 9.33884e-07 -1.16908e-07
0.0567444 8.76729e-07 -1.20763e-07
0.0650984 7.79749e-07 -1.1816e-07
0.0725279 6.54213e-07 -1.09026e-07
0.0789569 5.10001e-07 -9.42501e-08
0.0843521 3.57909e-07 -7.65166e-08
0.0887245 2.10704e-07 -6.02187e-08
0.0921321 8.59062e-08 -5.24251e-08
0.0946785 -8.40551e-08 -5.97716e-08
0.0964975 -4.45382e-07 -1.23245e-07
0.0977363 -1.36641e-06 -3.26047e-07
0.098538 -3.75141e-06 -8.7862e-07
0.0990279 -9.71345e-06 -2.28327e-06
0.0993036 -2.39101e-05 -5.66886e-06
0.0994281 -5.5863e-05 -1.34532e-05
0.0999256 -0.000122934 -3.02353e-05
0.09965 -0.000260634 -6.98143e-05
0.098935 -0.000279496 -7.93682e-05
0.0989522 -0.000231123 -7.56236e-05
0.0989622 -0.000172387 -6.26623e-05
0.0990174 -0.000120085 -4.77468e-05
0.0990929 -7.96213e-05 -3.43457e-05
0.0991731 -5.09091e-05 -2.3635e-05
0.0992405 -3.23641e-05 -1.56618e-05
0.0992734 -2.33161e-05 -1.01541e-05
0.0994073 -2.65526e-05 -7.11724e-06
0.0991843 -6.11966e-05 -8.58509e-06
0.0986224 -4.6209e-05 -5.52835e-06
0.0979028 -2.90682e-05 -4.05141e-06
0.0963671 -1.64824e-05 -2.56038e-06
0.0933884 -8.75855e-06 -1.42781e-06
0.0879271 -4.56733e-06 -6.80512e-07
0.0785276 -2.5056e-06 -2.40148e-07
0.0635621 -1.54165e-06 -2.08737e-08
0.0420274 -9.97147e-07 3.84628e-08
0.0147834 -4.52084e-07 -5.40493e-09
0.00553835 2.58105e-07 -4.20366e-08
0.0165551 5.29345e-07 -7.11235e-08
0.0273553 6.73894e-07 -9.35447e-08
0.0377657 7.30405e-07 -1.09593e-07
0.0476352 7.2662e-07 -1.1956e-07
0.0568193 6.8035e-07 -1.23286e-07
0.0651872 6.03264e-07 -1.20412e-07
0.0726306 5.03257e-07 -1.10874e-07
0.0790728 3.85735e-07 -9.55614e-08
0.0844804 2.53055e-07 -7.71603e-08
0.088864 9.92764e-08 -6.19398e-08
0.0922813 -1.02329e-07 -5.55665e-08
0.0948357 -5.04605e-07 -6.80733e-08
0.096661 -1.45885e-06 -1.46801e-07
0.0979043 -3.7937e-06 -3.90281e-07
0.0987092 -9.41584e-06 -1.04498e-06
0.0992013 -2.26008e-05 -2.69308e-06
0.0994792 -5.27096e-05 -6.63045e-06
0.0996086 -0.000120593 -1.56058e-05
0.100041 -0.000268254 -3.4787e-05
0.0998089 -0.000697199 -7.95546e-05
0.0992191 -0.000554884 -8.92279e-05
0.0992416 -0.000436075 -8.51546e-05
0.0992338 -0.000322775 -7.05949e-05
0.099268 -0.0002295 -5.37761e-05
0.0993245 -0.000157946 -3.86575e-05
0.0993891 -0.000106629 -2.66e-05
0.0994449 -7.3697e-05 -1.76923e-05
0.0994704 -6.07717e-05 -1.17057e-05
0.0995702 -7.80091e-05 -8.81664e-06
0.0993654 -0.000199571 -1.19652e-05
0.0988467 -0.000124076 -8.1057e-06