# vtk DataFile Version 2.0
Presion
ASCII

DATASET STRUCTURED_GRID
DIMENSIONS   40   40   30

POINTS   48000   double
0.0125   0.0125   0.0166667
0.0375   0.0125   0.0166667
0.0625   0.0125   0.0166667
0.0875   0.0125   0.0166667
0.1125   0.0125   0.0166667
0.1375   0.0125   0.0166667
0.1625   0.0125   0.0166667
0.1875   0.0125   0.0166667
0.2125   0.0125   0.0166667
0.2375   0.0125   0.0166667
0.2625   0.0125   0.0166667
0.2875   0.0125   0.0166667
0.3125   0.0125   0.0166667
0.3375   0.0125   0.0166667
0.3625   0.0125   0.0166667
0.3875   0.0125   0.0166667
0.4125   0.0125   0.0166667
0.4375   0.0125   0.0166667
0.4625   0.0125   0.0166667
0.4875   0.0125   0.0166667
0.5125   0.0125   0.0166667
0.5375   0.0125   0.0166667
0.5625   0.0125   0.0166667
0.5875   0.0125   0.0166667
0.6125   0.0125   0.0166667
0.6375   0.0125   0.0166667
0.6625   0.0125   0.0166667
0.6875   0.0125   0.0166667
0.7125   0.0125   0.0166667
0.7375   0.0125   0.0166667
0.7625   0.0125   0.0166667
0.7875   0.0125   0.0166667
0.8125   0.0125   0.0166667
0.8375   0.0125   0.0166667
0.8625   0.0125   0.0166667
0.8875   0.0125   0.0166667
0.9125   0.0125   0.0166667
0.9375   0.0125   0.0166667
0.9625   0.0125   0.0166667
0.9875   0.0125   0.0166667
0.0125   0.0375   0.0166667
0.0375   0.0375   0.0166667
0.0625   0.0375   0.0166667
0.0875   0.0375   0.0166667
0.1125   0.0375   0.0166667
0.1375   0.0375   0.0166667
0.1625   0.0375   0.0166667
0.1875   0.0375   0.0166667
0.2125   0.0375   0.0166667
0.2375   0.0375   0.0166667
0.2625   0.0375   0.0166667
0.2875   0.0375   0.0166667
0.3125   0.0375   0.0166667
0.3375   0.0375   0.0166667
0.3625   0.0375   0.0166667
0.3875   0.0375   0.0166667
0.4125   0.0375   0.0166667
0.4375   0.0375   0.0166667
0.4625   0.0375   0.0166667
0.4875   0.0375   0.0166667
0.5125   0.0375   0.0166667
0.5375   0.0375   0.0166667
0.5625   0.0375   0.0166667
0.5875   0.0375   0.0166667
0.6125   0.0375   0.0166667
0.6375   0.0375   0.0166667
0.6625   0.0375   0.0166667
0.6875   0.0375   0.0166667
0.7125   0.0375   0.0166667
0.7375   0.0375   0.0166667
0.7625   0.0375   0.0166667
0.7875   0.0375   0.0166667
0.8125   0.0375   0.0166667
0.8375   0.0375   0.0166667
0.8625   0.0375   0.0166667
0.8875   0.0375   0.0166667
0.9125   0.0375   0.0166667
0.9375   0.0375   0.0166667
0.9625   0.0375   0.0166667
0.9875   0.0375   0.0166667
0.0125   0.0625   0.0166667
0.0375   0.0625   0.0166667
0.0625   0.0625   0.0166667
0.0875   0.0625   0.0166667
0.1125   0.0625   0.0166667
0.1375   0.0625   0.0166667
0.1625   0.0625   0.0166667
0.1875   0.0625   0.0166667
0.2125   0.0625   0.0166667
0.2375   0.0625   0.0166667
0.2625   0.0625   0.0166667
0.2875   0.0625   0.0166667
0.3125   0.0625   0.0166667
0.3375   0.0625   0.0166667
0.3625   0.0625   0.0166667
0.3875   0.0625   0.0166667
0.4125   0.0625   0.0166667
0.4375   0.0625   0.0166667
0.4625   0.0625   0.0166667
0.4875   0.0625   0.0166667
0.5125   0.0625   0.0166667
0.5375   0.0625   0.0166667
0.5625   0.0625   0.0166667
0.5875   0.0625   0.0166667
0.6125   0.0625   0.0166667
0.6375   0.0625   0.0166667
0.6625   0.0625   0.0166667
0.6875   0.0625   0.0166667
0.7125   0.0625   0.0166667
0.7375   0.0625   0.0166667
0.7625   0.0625   0.0166667
0.7875   0.0625   0.0166667
0.8125   0.0625   0.0166667
0.8375   0.0625   0.0166667
0.8625   0.0625   0.0166667
0.8875   0.0625   0.0166667
0.9125   0.0625   0.0166667
0.9375   0.0625   0.0166667
0.9625   0.0625   0.0166667
0.9875   0.0625   0.0166667
0.0125   0.0875   0.0166667
0.0375   0.0875   0.0166667
0.0625   0.0875   0.0166667
0.0875   0.0875   0.0166667
0.1125   0.0875   0.0166667
0.1375   0.0875   0.0166667
0.1625   0.0875   0.0166667
0.1875   0.0875   0.0166667
0.2125   0.0875   0.0166667
0.2375   0.0875   0.0166667
0.2625   0.0875   0.0166667
0.2875   0.0875   0.0166667
0.3125   0.0875   0.0166667
0.3375   0.0875   0.0166667
0.3625   0.0875   0.0166667
0.3875   0.0875   0.0166667
0.4125   0.0875   0.0166667
0.4375   0.0875   0.0166667
0.4625   0.0875   0.0166667
0.4875   0.0875   0.0166667
0.5125   0.0875   0.0166667
0.5375   0.0875   0.0166667
0.5625   0.0875   0.0166667
0.5875   0.0875   0.0166667
0.6125   0.0875   0.0166667
0.6375   0.0875   0.0166667
0.6625   0.0875   0.0166667
0.6875   0.0875   0.0166667
0.7125   0.0875   0.0166667
0.7375   0.0875   0.0166667
0.7625   0.0875   0.0166667
0.7875   0.0875   0.0166667
0.8125   0.0875   0.0166667
0.8375   0.0875   0.0166667
0.8625   0.0875   0.0166667
0.8875   0.0875   0.0166667
0.9125   0.0875   0.0166667
0.9375   0.0875   0.0166667
0.9625   0.0875   0.0166667
0.9875   0.0875   0.0166667
0.0125   0.1125   0.0166667
0.0375   0.1125   0.0166667
0.0625   0.1125   0.0166667
0.0875   0.1125   0.0166667
0.1125   0.1125   0.0166667
0.1375   0.1125   0.0166667
0.1625   0.1125   0.0166667
0.1875   0.1125   0.0166667
0.2125   0.1125   0.0166667
0.2375   0.1125   0.0166667
0.2625   0.1125   0.0166667
0.2875   0.1125   0.0166667
0.3125   0.1125   0.0166667
0.3375   0.1125   0.0166667
0.3625   0.1125   0.0166667
0.3875   0.1125   0.0166667
0.4125   0.1125   0.0166667
0.4375   0.1125   0.0166667
0.4625   0.1125   0.0166667
0.4875   0.1125   0.0166667
0.5125   0.1125   0.0166667
0.5375   0.1125   0.0166667
0.5625   0.1125   0.0166667
0.5875   0.1125   0.0166667
0.6125   0.1125   0.0166667
0.6375   0.1125   0.0166667
0.6625   0.1125   0.0166667
0.6875   0.1125   0.0166667
0.7125   0.1125   0.0166667
0.7375   0.1125   0.0166667
0.7625   0.1125   0.0166667
0.7875   0.1125   0.0166667
0.8125   0.1125   0.0166667
0.8375   0.1125   0.0166667
0.8625   0.1125   0.0166667
0.8875   0.1125   0.0166667
0.9125   0.1125   0.0166667
0.9375   0.1125   0.0166667
0.9625   0.1125   0.0166667
0.9875   0.1125   0.0166667
0.0125   0.1375   0.0166667
0.0375   0.1375   0.0166667
0.0625   0.1375   0.0166667
0.0875   0.1375   0.0166667
0.1125   0.1375   0.0166667
0.1375   0.1375   0.0166667
0.1625   0.1375   0.0166667
0.1875   0.1375   0.0166667
0.2125   0.1375   0.0166667
0.2375   0.1375   0.0166667
0.2625   0.1375   0.0166667
0.2875   0.1375   0.0166667
0.3125   0.1375   0.0166667
0.3375   0.1375   0.0166667
0.3625   0.1375   0.0166667
0.3875   0.1375   0.0166667
0.4125   0.1375   0.0166667
0.4375   0.1375   0.0166667
0.4625   0.1375   0.0166667
0.4875   0.1375   0.0166667
0.5125   0.1375   0.0166667
0.5375   0.1375   0.0166667
0.5625   0.1375   0.0166667
0.5875   0.1375   0.0166667
0.6125   0.1375   0.0166667
0.6375   0.1375   0.0166667
0.6625   0.1375   0.0166667
0.6875   0.1375   0.0166667
0.7125   0.1375   0.0166667
0.7375   0.1375   0.0166667
0.7625   0.1375   0.0166667
0.7875   0.1375   0.0166667
0.8125   0.1375   0.0166667
0.8375   0.1375   0.0166667
0.8625   0.1375   0.0166667
0.8875   0.1375   0.0166667
0.9125   0.1375   0.0166667
0.9375   0.1375   0.0166667
0.9625   0.1375   0.0166667
0.9875   0.1375   0.0166667
0.0125   0.1625   0.0166667
0.0375   0.1625   0.0166667
0.0625   0.1625   0.0166667
0.0875   0.1625   0.0166667
0.1125   0.1625   0.0166667
0.1375   0.1625   0.0166667
0.1625   0.1625   0.0166667
0.1875   0.1625   0.0166667
0.2125   0.1625   0.0166667
0.2375   0.1625   0.0166667
0.2625   0.1625   0.0166667
0.2875   0.1625   0.0166667
0.3125   0.1625   0.0166667
0.3375   0.1625   0.0166667
0.3625   0.1625   0.0166667
0.3875   0.1625   0.0166667
0.4125   0.1625   0.0166667
0.4375   0.1625   0.0166667
0.4625   0.1625   0.0166667
0.4875   0.1625   0.0166667
0.5125   0.1625   0.0166667
0.5375   0.1625   0.0166667
0.5625   0.1625   0.0166667
0.5875   0.1625   0.0166667
0.6125   0.1625   0.0166667
0.6375   0.1625   0.0166667
0.6625   0.1625   0.0166667
0.6875   0.1625   0.0166667
0.7125   0.1625   0.0166667
0.7375   0.1625   0.0166667
0.7625   0.1625   0.0166667
0.7875   0.1625   0.0166667
0.8125   0.1625   0.0166667
0.8375   0.1625   0.0166667
0.8625   0.1625   0.0166667
0.8875   0.1625   0.0166667
0.9125   0.1625   0.0166667
0.9375   0.1625   0.0166667
0.9625   0.1625   0.0166667
0.9875   0.1625   0.0166667
0.0125   0.1875   0.0166667
0.0375   0.1875   0.0166667
0.0625   0.1875   0.0166667
0.0875   0.1875   0.0166667
0.1125   0.1875   0.0166667
0.1375   0.1875   0.0166667
0.1625   0.1875   0.0166667
0.1875   0.1875   0.0166667
0.2125   0.1875   0.0166667
0.2375   0.1875   0.0166667
0.2625   0.1875   0.0166667
0.2875   0.1875   0.0166667
0.3125   0.1875   0.0166667
0.3375   0.1875   0.0166667
0.3625   0.1875   0.0166667
0.3875   0.1875   0.0166667
0.4125   0.1875   0.0166667
0.4375   0.1875   0.0166667
0.4625   0.1875   0.0166667
0.4875   0.1875   0.0166667
0.5125   0.1875   0.0166667
0.5375   0.1875   0.0166667
0.5625   0.1875   0.0166667
0.5875   0.1875   0.0166667
0.6125   0.1875   0.0166667
0.6375   0.1875   0.0166667
0.6625   0.1875   0.0166667
0.6875   0.1875   0.0166667
0.7125   0.1875   0.0166667
0.7375   0.1875   0.0166667
0.7625   0.1875   0.0166667
0.7875   0.1875   0.0166667
0.8125   0.1875   0.0166667
0.8375   0.1875   0.0166667
0.8625   0.1875   0.0166667
0.8875   0.1875   0.0166667
0.9125   0.1875   0.0166667
0.9375   0.1875   0.0166667
0.9625   0.1875   0.0166667
0.9875   0.1875   0.0166667
0.0125   0.2125   0.0166667
0.0375   0.2125   0.0166667
0.0625   0.2125   0.0166667
0.0875   0.2125   0.0166667
0.1125   0.2125   0.0166667
0.1375   0.2125   0.0166667
0.1625   0.2125   0.0166667
0.1875   0.2125   0.0166667
0.2125   0.2125   0.0166667
0.2375   0.2125   0.0166667
0.2625   0.2125   0.0166667
0.2875   0.2125   0.0166667
0.3125   0.2125   0.0166667
0.3375   0.2125   0.0166667
0.3625   0.2125   0.0166667
0.3875   0.2125   0.0166667
0.4125   0.2125   0.0166667
0.4375   0.2125   0.0166667
0.4625   0.2125   0.0166667
0.4875   0.2125   0.0166667
0.5125   0.2125   0.0166667
0.5375   0.2125   0.0166667
0.5625   0.2125   0.0166667
0.5875   0.2125   0.0166667
0.6125   0.2125   0.0166667
0.6375   0.2125   0.0166667
0.6625   0.2125   0.0166667
0.6875   0.2125   0.0166667
0.7125   0.2125   0.0166667
0.7375   0.2125   0.0166667
0.7625   0.2125   0.0166667
0.7875   0.2125   0.0166667
[...]
POINT_DATA   48000
SCALARS Presion double
LOOKUP_TABLE   Presion

0 0 0 0 0 0 0 0 0 0 0 0 0 0 0 0 0 0 0 0 0 0 0 0 0 0 0 0 0 0 0 -5.05858e-05 -0.000273838 -8.71774e-06 -0.000122887 -0.00100576 -5.0707e-05 -0.000263609 -7.65486e-06 0 0 0 0 0 0 0 0 0 0 0 0 0 0 0 0 0 0 0 0 0 0 0 0 0 0 0 0 0 0 0 0 -5.63495e-05 -0.000315222 -1.31838e-05 -0.000142022 -0.00123519 -5.6559e-05 -0.0002992 -1.21419e-05 0 0 0 0 0 0 0 0 0 0 0 0 0 0 0 0 0 0 0 0 0 0 0 0 0 0 0 0 0 0 0 0 -6.24546e-05 -0.000366547 -1.7688e-05 -0.000158581 -0.00150123 -6.27577e-05 -0.000341735 -1.67839e-05 0 0 0 0 0 0 0 0 0 0 0 0 0 0 0 0 0 0 0 0 0 0 0 0 0 0 0 0 0 0 0 0 -6.89724e-05 -0.000431285 -2.23032e-05 -0.000168806 -0.00174244 -6.93655e-05 -0.000393084 -2.16283e-05 0 0 0 0 0 0 0 0 0 0 0 0 0 0 0 0 0 0 0 0 0 0 0 0 0 0 0 0 0 0 0 0 -7.5988e-05 -0.000514528 -2.71015e-05 -0.000174994 -0.00174428 -7.64556e-05 -0.000455699 -2.6712e-05 0 0 0 0 0 0 0 0 0 0 0 0 0 0 0 0 0 0 0 0 0 0 0 0 0 0 0 0 0 0 0 0 -8.36032e-05 -0.000623959 -3.21015e-05 -0.000183982 -0.000974752 -8.41155e-05 -0.000532712 -3.2054e-05 0 0 0 0 0 0 0 0 0 0 0 0 0 0 0 0 0 0 0 0 0 0 0 0 0 0 0 0 0 0 0 0 -9.19401e-05 -0.000771518 -3.72235e-05 -0.000201006 -1.79799e-06 -9.24508e-05 -0.000627937 -3.76546e-05 0 0 0 0 0 0 0 0 0 0 0 0 0 0 0 0 0 0 0 0 0 0 0 0 0 0 0 0 0 0 0 0 -0.000101146 -0.000976357 -4.23567e-05 -0.000228963 -6.28002e-06 -0.00010159 -0.000745483 -4.3501e-05 0 0 0 0 0 0 0 0 0 0 0 0 0 0 0 0 0 0 0 0 0 0 0 0 0 0 0 0 0 0 0 0 -0.000111401 -0.00127008 -4.7657e-05 -0.000267075 -1.07908e-05 -0.000111689 -0.000888287 -4.95806e-05 0 0 0 0 0 0 0 0 0 0 0 0 0 0 0 0 0 0 0 0 0 0 0 0 0 0 0 0 0 0 0 0 -0.000122925 -0.00170575 -5.37097e-05 -0.000315987 -1.53449e-05 -0.000122941 -0.00105378 -5.58974e-05 0 0 0 0 0 0 0 0 0 0 0 0 0 0 0 0 0 0 0 0 0 0 0 0 0 0 0 0 0 0 0 0 -0.00013599 -0.0023705 -6.08731e-05 -0.000374739 -1.99616e-05 -0.000135584 -0.00122243 -6.24875e-05 0 0 0 0 0 0 0 0 0 0 0 0 0 0 0 0 0 0 0 0 0 0 0 0 0 0 0 0 0 0 0 0 -0.00015094 -0.00338475 -6.85755e-05 -0.000443994 -2.46636e-05 -0.00014991 -0.00133013 -6.94265e-05 0 0 0 0 0 0 0 0 0 0 0 0 0 0 0 0 0 0 0 0 0 0 0 0 0 0 0 0 0 0 0 0 -0.00016821 -0.00474995 -7.58895e-05 -0.000524851 -2.94768e-05 -0.000166285 -0.00121497 -7.68233e-05 0 0 0 0 0 0 0 0 0 0 0 0 0 0 0 0 0 0 0 0 0 0 0 0 0 0 0 0 0 0 0 0 -0.000188357 -0.00511354 -8.31849e-05 -0.000619487 -3.44296e-05 -0.000185171 -0.000587821 -8.48023e-05 0 0 0 0 0 0 0 0 0 0 0 0 0 0 0 0 0 0 0 0 0 0 0 0 0 0 0 0 0 0 0 0 -0.000212113 -2.09304e-06 -9.24395e-05 -0.000735515 -3.95533e-05 -0.000207149 8.53061e-07 -9.3481e-05 0 0 0 0 0 0 0 0 0 0 0 0 0 0 0 0 0 0 0 0 0 0 0 0 0 0 0 0 0 0 0 0 -0.000240442 -6.6287e-06 -0.000104422 -0.000890721 -4.48827e-05 -0.000232967 -3.67016e-06 -0.000102956 0 0 0 0 0 0 0 0 0 0 0 0 0 0 0 0 0 0 0 0 0 0 0 0 0 0 0 0 0 0 0 0 -0.000274651 -1.11928e-05 -0.000118721 -0.00111158 -5.04571e-05 -0.000263588 -8.2623e-06 -0.000113318 0 0 0 0 0 0 0 0 0 0 0 0 0 0 0 0 0 0 0 0 0 0 0 0 0 0 0 0 0 0 0 0 -0.000316535 -1.57956e-05 -0.000134342 -0.0014257 -5.63219e-05 -0.000300265 -1.29536e-05 -0.000124687 0 0 0 0 0 0 0 0 0 0 0 0 0 0 0 0 0 0 0 0 0 0 0 0 0 0 0 0 0 0 0 0 -0.000368623 -2.04514e-05 -0.000149074 -0.00185078 -6.25302e-05 -0.00034464 -1.77827e-05 -0.000137274 0 0 0 0 0 0 0 0 0 0 0 0 0 0 0 0 0 0 0 0 0 0 0 0 0 0 0 0 0 0 0 0 -0.000434572 -2.51787e-05 -0.000161058 -0.00235718 -6.91451e-05 -0.000398873 -2.27887e-05 -0.000151409 0 0 0 0 0 0 0 0 0 0 0 0 0 0 0 0 0 0 0 0 0 0 0 0 0 0 0 0 0 0 0 0 -0.00051982 -2.99994e-05 -0.000171887 -0.00270502 -7.62424e-05 -0.000465803 -2.80018e-05 -0.000167545 0 0 0 0 0 0 0 0 0 0 0 0 0 0 0 0 0 0 0 0 0 0 0 0 0 0 0 0 0 0 0 0 -0.000632743 -3.49397e-05 -0.000185713 -0.00191504 -8.39136e-05 -0.00054913 -3.34355e-05 -0.000186209 0 0 0 0 0 0 0 0 0 0 0 0 0 0 0 0 0 0 0 0 0 0 0 0 0 0 0 0 0 0 0 0 -0.000786751 -4.003e-05 -0.000205775 7.09758e-07 -9.2269e-05 -0.000653531 -3.90857e-05 -0.000207948 0 0 0 0 0 0 0 0 0 0 0 0 0 0 0 0 0 0 0 0 0 0 0 0 0 0 0 0 0 0 0 0 -0.00100432 -4.53062e-05 -0.000233986 -3.75261e-06 -0.000101443 -0.000784492 -4.49372e-05 -0.000233335 0 0 0 0 0 0 0 0 0 0 0 0 0 0 0 0 0 0 0 0 0 0 0 0 0 0 0 0 0 0 0 0 -0.0013251 -5.08105e-05 -0.000270383 -8.22137e-06 -0.000111598 -0.000947163 -5.09769e-05 -0.000263029 0 0 0 0 0 0 0 0 0 0 0 0 0 0 0 0 0 0 0 0 0 0 0 0 0 0 0 0 0 0 0 0 -0.00182285 -5.65928e-05 -0.000315997 -1.27148e-05 -0.000122933 -0.00114231 -5.72116e-05 -0.000297898 0 0 0 0 0 0 0 0 0 0 0 0 0 0 0 0 0 0 0 0 0 0 0 0 0 0 0 0 0 0 0 0 -0.00264151 -6.27124e-05 -0.000371313 -1.72802e-05 -0.000135694 -0.00135422 -6.36841e-05 -0.00033912 0 0 0 0 0 0 0 0 0 0 0 0 0 0 0 0 0 0 0 0 0 0 0 0 0 0 0 0 0 0 0 0 -0.00406368 -6.92404e-05 -0.000438273 -2.199e-05 -0.000150182 -0.001518 -7.04803e-05 -0.000388272 0 0 0 0 0 0 0 0 0 0 0 0 0 0 0 0 0 0 0 0 0 0 0 0 0 0 0 0 0 0 0 0 -0.0065413 -7.62614e-05 -0.000519936 -2.69177e-05 -0.000166779 -0.00144564 -7.77217e-05 -0.000447398 0 0 0 0 0 0 0 0 0 0 0 0 0 0 0 0 0 0 0 0 0 0 0 0 0 0 0 0 0 0 0 0 -0.00941764 -8.38768e-05 -0.000621325 -3.21029e-05 -0.000185961 -0.000746506 -8.55454e-05 -0.000519045 0 0 0 0 0 0 0 0 0 0 0 0 0 0 0 0 0 0 0 0 0 0 0 0 0 0 0 0 0 0 0 0 -2.18795e-06 -9.22083e-05 -0.000752557 -3.75242e-05 -0.000208342 -1.8292e-06 -9.40786e-05 -0.000606188 0 0 0 0 0 0 0 0 0 0 0 0 0 0 0 0 0 0 0 0 0 0 0 0 0 0 0 0 0 0 0 0 -6.70148e-06 -0.000101403 -0.000932477 -4.31141e-05 -0.000234711 -6.37541e-06 -0.000103423 -0.000711747 0 0 0 0 0 0 0 0 0 0 0 0 0 0 0 0 0 0 0 0 0 0 0 0 0 0 0 0 0 0 0 0 -1.12405e-05 -0.000111638 -0.00118974 -4.88679e-05 -0.000266096 -1.09426e-05 -0.00011367 -0.00083694 0 0 0 0 0 0 0 0 0 0 0 0 0 0 0 0 0 0 0 0 0 0 0 0 0 0 0 0 0 0 0 0 -1.58156e-05 -0.000123133 -0.0015623 -5.49626e-05 -0.000303856 -1.55449e-05 -0.000124941 -0.000976901 0 0 0 0 0 0 0 0 0 0 0 0 0 0 0 0 0 0 0 0 0 0 0 0 0 0 0 0 0 0 0 0 -2.04414e-05 -0.000136157 -0.00209538 -6.16103e-05 -0.000349795 -2.02015e-05 -0.00013745 -0.00111014 0 0 0 0 0 0 0 0 0 0 0 0 0 0 0 0 0 0 0 0 0 0 0 0 0 0 0 0 0 0 0 0 -2.51366e-05 -0.000151049 -0.00281228 -6.87911e-05 -0.000406332 -2.49354e-05 -0.000151544 -0.0011757 0 0 0 0 0 0 0 0 0 0 0 0 0 0 0 0 0 0 0 0 0 0 0 0 0 0 0 0 0 0 0 0 -2.99238e-05 -0.000168236 -0.00352848 -7.63628e-05 -0.000476727 -2.9773e-05 -0.000167698 -0.00103549 0 0 0 0 0 0 0 0 0 0 0 0 0 0 0 0 0 0 0 0 0 0 0 0 0 0 0 0 0 0 0 0 -3.483e-05 -0.000188267 -0.00298989 -8.45945e-05 -0.000565365 -3.47435e-05 -0.000186468 -0.00047423 0 0 0 0 0 0 0 0 0 0 0 0 0 0 0 0 0 0 0 0 0 0 0 0 0 0 0 0 0 0 0 0 -3.98869e-05 -0.000211857 5.37512e-07 -9.42975e-05 -0.000678062 -3.98794e-05 -0.00020844 5.5707e-07 0 0 0 0 0 0 0 0 0 0 0 0 0 0 0 0 0 0 0 0 0 0 0 0 0 0 0 0 0 0 0 0 -4.51318e-05 -0.000239949 -3.88481e-06 -0.000105617 -0.000822207 -4.52167e-05 -0.000234225 -3.77175e-06 0 0 0 0 0 0 0 0 0 0 0 0 0 0 0 0 0 0 0 0 0 0 0 0 0 0 0 0 0 0 0 0 -7.60025e-05 -0.000514447 -2.52642e-05 -0.000169715 -0.00174448 -7.6568e-05 -0.000456791 -2.70918e-05 0 0 0 0 0 0 0 0 0 0 0 0 0 0 0 0 0 0 0 0 0 0 0 0 0 0 0 0 0 0 0 0 -8.36194e-05 -0.000623863 -2.95558e-05 -0.000186001 -0.00097492 -8.42217e-05 -0.000533369 -3.23533e-05 0 0 0 0 0 0 0 0 0 0 0 0 0 0 0 0 0 0 0 0 0 0 0 0 0 0 0 0 0 0 0 0 -9.19588e-05 -0.000771411 -3.32596e-05 -0.000207681 -1.93708e-06 -9.25484e-05 -0.000627951 -3.786e-05 0 0 0 0 0 0 0 0 0 0 0 0 0 0 0 0 0 0 0 0 0 0 0 0 0 0 0 0 0 0 0 0 -0.000101168 -0.000976245 -3.60503e-05 -0.00023592 -6.42909e-06 -0.000101678 -0.000744746 -4.36109e-05 0 0 0 0 0 0 0 0 0 0 0 0 0 0 0 0 0 0 0 0 0 0 0 0 0 0 0 0 0 0 0 0 -0.000111426 -0.00126997 -3.93304e-05 -0.000271137 -1.0945e-05 -0.000111769 -0.000886851 -4.96057e-05 0 0 0 0 0 0 0 0 0 0 0 0 0 0 0 0 0 0 0 0 0 0 0 0 0 0 0 0 0 0 0 0 -0.000122952 -0.00170565 -4.6226e-05 -0.000314223 -1.5499e-05 -0.000123015 -0.00105185 -5.58565e-05 0 0 0 0 0 0 0 0 0 0 0 0 0 0 0 0 0 0 0 0 0 0 0 0 0 0 0 0 0 0 0 0 -0.000136021 -0.00237042 -5.75589e-05 -0.000366423 -2.01101e-05 -0.000135653 -0.00122029 -6.23985e-05 0 0 0 0 0 0 0 0 0 0 0 0 0 0 0 0 0 0 0 0 0 0 0 0 0 0 0 0 0 0 0 0 -0.000150975 -0.00338468 -6.89886e-05 -0.000429742 -2.48011e-05 -0.000149976 -0.00132806 -6.92957e-05 0 0 0 0 0 0 0 0 0 0 0 0 0 0 0 0 0 0 0 0 0 0 0 0 0 0 0 0 0 0 0 0 -0.000168248 -0.00474991 -7.50785e-05 -0.000507221 -2.95984e-05 -0.00016635 -0.00121309 -7.66389e-05 0 0 0 0 0 0 0 0 0 0 0 0 0 0 0 0 0 0 0 0 0 0 0 0 0 0 0 0 0 0 0 0 -0.0001884 -0.00511352 -7.63998e-05 -0.000603767 -3.45314e-05 -0.000185233 -0.000586057 -8.45371e-05 0 0 0 0 0 0 0 0 0 0 0 0 0 0 0 0 0 0 0 0 0 0 0 0 0 0 0 0 0 0 0 0 -0.000212159 -1.98855e-06 -8.32635e-05 -0.000728041 -3.96329e-05 -0.000207208 1.39508e-06 -9.31058e-05 0 0 0 0 0 0 0 0 0 0 0 0 0 0 0 0 0 0 0 0 0 0 0 0 0 0 0 0 0 0 0 0 -0.000240495 -6.52685e-06 -9.84327e-05 -0.000894636 -4.49396e-05 -0.000233018 -3.096e-06 -0.000102462 0 0 0 0 0 0 0 0 0 0 0 0 0 0 0 0 0 0 0 0 0 0 0 0 0 0 0 0 0 0 0 0 -0.00027471 -1.10963e-05 -0.000123171 -0.00112422 -5.04926e-05 -0.000263625 -7.65678e-06 -0.000112732 0 0 0 0 0 0 0 0 0 0 0 0 0 0 0 0 0 0 0 0 0 0 0 0 0 0 0 0 0 0 0 0 -0.000316602 -1.57073e-05 -0.000152842 -0.00144094 -5.63388e-05 -0.000300282 -1.23209e-05 -0.000124076 0 0 0 0 0 0 0 0 0 0 0 0 0 0 0 0 0 0 0 0 0 0 0 0 0 0 0 0 0 0 0 0 -0.000368699 -2.03745e-05 -0.000178225 -0.00186367 -6.25324e-05 -0.00034463 -1.71342e-05 -0.000136715 0 0 0 0 0 0 0 0 0 0 0 0 0 0 0 0 0 0 0 0 0 0 0 0 0 0 0 0 0 0 0 0 -0.000434657 -2.51162e-05 -0.000188627 -0.00236597 -6.91371e-05 -0.00039883 -2.21449e-05 -0.000150952 0 0 0 0 0 0 0 0 0 0 0 0 0 0 0 0 0 0 0 0 0 0 0 0 0 0 0 0 0 0 0 0 -0.000519914 -2.9954e-05 -0.000186219 -0.00271034 -7.62284e-05 -0.000465724 -2.73911e-05 -0.000167177 0 0 0 0 0 0 0 0 0 0 0 0 0 0 0 0 0 0 0 0 0 0 0 0 0 0 0 0 0 0 0 0 -0.000632843 -3.49132e-05 -0.000184063 -0.00191868 -8.38965e-05 -0.000549014 -3.28881e-05 -0.000185846 0 0 0 0 0 0 0 0 0 0 0 0 0 0 0 0 0 0 0 0 0 0 0 0 0 0 0 0 0 0 0 0 -0.000786856 -4.00227e-05 -0.000192914 1.57665e-07 -9.22508e-05 -0.000653381 -3.86256e-05 -0.000207471 0 0 0 0 0 0 0 0 0 0 0 0 0 0 0 0 0 0 0 0 0 0 0 0 0 0 0 0 0 0 0 0 -0.00100443 -4.53168e-05 -0.000218801 -4.33468e-06 -0.000101424 -0.000784316 -4.45743e-05 -0.000232642 0 0 0 0 0 0 0 0 0 0 0 0 0 0 0 0 0 0 0 0 0 0 0 0 0 0 0 0 0 0 0 0 -0.00132519 -5.08361e-05 -0.000259129 -8.86709e-06 -0.000111578 -0.000946972 -5.07054e-05 -0.000262077 0 0 0 0 0 0 0 0 0 0 0 0 0 0 0 0 0 0 0 0 0 0 0 0 0 0 0 0 0 0 0 0 -0.00182293 -5.66293e-05 -0.000316458 -1.346e-05 -0.00012291 -0.00114212 -5.70165e-05 -0.000296709 0 0 0 0 0 0 0 0 0 0 0 0 0 0 0 0 0 0 0 0 0 0 0 0 0 0 0 0 0 0 0 0 -0.00264158 -6.27552e-05 -0.000382142 -1.815e-05 -0.000135666 -0.00135405 -6.35563e-05 -0.000337776 0 0 0 0 0 0 0 0 0 0 0 0 0 0 0 0 0 0 0 0 0 0 0 0 0 0 0 0 0 0 0 0 -0.00406373 -6.9285e-05 -0.000457201 -2.29851e-05 -0.00015015 -0.00151786 -7.04319e-05 -0.000386906 0 0 0 0 0 0 0 0 0 0 0 0 0 0 0 0 0 0 0 0 0 0 0 0 0 0 0 0 0 0 0 0 -0.00654134 -7.63043e-05 -0.000544218 -2.80111e-05 -0.000166741 -0.00144552 -7.77951e-05 -0.000446184 0 0 0 0 0 0 0 0 0 0 0 0 0 0 0 0 0 0 0 0 0 0 0 0 0 0 0 0 0 0 0 0 -0.00941765 -8.39157e-05 -0.000643777 -3.32563e-05 -0.00018592 -0.00074641 -8.58076e-05 -0.000518196 0 0 0 0 0 0 0 0 0 0 0 0 0 0 0 0 0 0 0 0 0 0 0 0 0 0 0 0 0 0 0 0 -2.22136e-06 -9.2242e-05 -0.000763282 -3.87225e-05 -0.0002083 -1.65516e-06 -9.4597e-05 -0.000605917 0 0 0 0 0 0 0 0 0 0 0 0 0 0 0 0 0 0 0 0 0 0 0 0 0 0 0 0 0 0 0 0 -6.73838e-06 -0.000101431 -0.000926416 -4.439e-05 -0.000234674 -6.21015e-06 -0.000104219 -0.000712195 0 0 0 0 0 0 0 0 0 0 0 0 0 0 0 0 0 0 0 0 0 0 0 0 0 0 0 0 0 0 0 0 -1.12798e-05 -0.000111661 -0.00117112 -5.02454e-05 -0.000266072 -1.07919e-05 -0.00011468 -0.000838114 0 0 0 0 0 0 0 0 0 0 0 0 0 0 0 0 0 0 0 0 0 0 0 0 0 0 0 0 0 0 0 0 -1.58561e-05 -0.00012315 -0.00154067 -5.63227e-05 -0.000303852 -1.54146e-05 -0.000126013 -0.000978663 0 0 0 0 0 0 0 0 0 0 0 0 0 0 0 0 0 0 0 0 0 0 0 0 0 0 0 0 0 0 0 0 -2.04818e-05 -0.000136169 -0.00207805 -6.27113e-05 -0.000349819 -2.0097e-05 -0.000138386 -0.00111226 0 0 0 0 0 0 0 0 0 0 0 0 0 0 0 0 0 0 0 0 0 0 0 0 0 0 0 0 0 0 0 0 -2.51757e-05 -0.000151056 -0.00280129 -6.95235e-05 -0.000406392 -2.48618e-05 -0.000152183 -0.00117792 0 0 0 0 0 0 0 0 0 0 0 0 0 0 0 0 0 0 0 0 0 0 0 0 0 0 0 0 0 0 0 0 -2.99605e-05 -0.000168239 -0.00352249 -7.68854e-05 -0.000476828 -2.9734e-05 -0.000168017 -0.00103766 0 0 0 0 0 0 0 0 0 0 0 0 0 0 0 0 0 0 0 0 0 0 0 0 0 0 0 0 0 0 0 0 -3.48634e-05 -0.000188267 -0.00298633 -8.49763e-05 -0.000565508 -3.47413e-05 -0.000186611 -0.000476342 0 0 0 0 0 0 0 0 0 0 0 0 0 0 0 0 0 0 0 0 0 0 0 0 0 0 0 0 0 0 0 0 -3.99165e-05 -0.000211853 6.54399e-07 -9.40143e-05 -0.000678243 -3.99138e-05 -0.000208647 4.21275e-08 0 0 0 0 0 0 0 0 0 0 0 0 0 0 0 0 0 0 0 0 0 0 0 0 0 0 0 0 0 0 0 0 -4.51575e-05 -0.000239939 -3.68031e-06 -0.000104045 -0.000822416 -4.52849e-05 -0.000234724 -4.30441e-06 0 0 0 0 0 0 0 0 0 0 0 0 0 0 0 0 0 0 0 0 0 0 0 0 0 0 0 0 0 0 0 0 -5.06303e-05 -0.000273792 -7.82174e-06 -0.000114997 -0.00100633 -5.08926e-05 -0.000265473 -8.69796e-06 0 0 0 0 0 0 0 0 0 0 0 0 0 0 0 0 0 0 0 0 0 0 0 0 0 0 0 0 0 0 0 0 -5.63866e-05 -0.00031515 -1.1757e-05 -0.000126756 -0.00123576 -5.67809e-05 -0.000301748 -1.31753e-05 0 0 0 0 0 0 0 0 0 0 0 0 0 0 0 0 0 0 0 0 0 0 0 0 0 0 0 0 0 0 0 0 -6.24868e-05 -0.00036644 -1.55341e-05 -0.000139309 -0.00150176 -6.30019e-05 -0.000344781 -1.77761e-05 0 0 0 0 0 0 0 0 0 0 0 0 0 0 0 0 0 0 0 0 0 0 0 0 0 0 0 0 0 0 0 0 -6.90026e-05 -0.000431136 -1.92011e-05 -0.000152951 -0.00174288 -6.96178e-05 -0.000396295 -2.25386e-05 0 0 0 0 0 0 0 0 0 0 0 0 0 0 0 0 0 0 0 0 0 0 0 0 0 0 0 0 0 0 0 0 -0.000111448 -0.0012698 -1.46976e-05 -0.000271712 -1.10517e-05 -0.000111871 -0.00088513 -4.96339e-05 0 0 0 0 0 0 0 0 0 0 0 0 0 0 0 0 0 0 0 0 0 0 0 0 0 0 0 0 0 0 0 0 -0.000122977 -0.00170548 -2.72111e-05 -0.000312542 -1.56081e-05 -0.000123112 -0.00104938 -5.58148e-05 0 0 0 0 0 0 0 0 0 0 0 0 0 0 0 0 0 0 0 0 0 0 0 0 0 0 0 0 0 0 0 0 -0.000136047 -0.00237028 -5.45034e-05 -0.000362266 -2.02177e-05 -0.000135749 -0.0012175 -6.23073e-05 0 0 0 0 0 0 0 0 0 0 0 0 0 0 0 0 0 0 0 0 0 0 0 0 0 0 0 0 0 0 0 0 -0.000151003 -0.00338458 -7.82558e-05 -0.000423541 -2.49036e-05 -0.000150074 -0.00132534 -6.91682e-05 0 0 0 0 0 0 0 0 0 0 0 0 0 0 0 0 0 0 0 0 0 0 0 0 0 0 0 0 0 0 0 0 -0.000168278 -0.00474985 -7.52534e-05 -0.000500251 -2.96923e-05 -0.000166452 -0.00121062 -7.64758e-05 0 0 0 0 0 0 0 0 0 0 0 0 0 0 0 0 0 0 0 0 0 0 0 0 0 0 0 0 0 0 0 0 -0.000188433 -0.00511348 -5.72928e-05 -0.000598175 -3.4614e-05 -0.000185339 -0.000583736 -8.43267e-05 0 0 0 0 0 0 0 0 0 0 0 0 0 0 0 0 0 0 0 0 0 0 0 0 0 0 0 0 0 0 0 0 -0.000212196 -1.83836e-06 -3.97118e-05 -0.000726109 -3.97023e-05 -0.000207313 1.84065e-06 -9.28327e-05 0 0 0 0 0 0 0 0 0 0 0 0 0 0 0 0 0 0 0 0 0 0 0 0 0 0 0 0 0 0 0 0 -0.000240534 -6.37912e-06 -6.68219e-05 -0.000897273 -4.4995e-05 -0.000233118 -2.61339e-06 -0.00010212 0 0 0 0 0 0 0 0 0 0 0 0 0 0 0 0 0 0 0 0 0 0 0 0 0 0 0 0 0 0 0 0 -0.000274754 -1.09543e-05 -0.000124427 -0.00113019 -5.05343e-05 -0.00026371 -7.13271e-06 -0.000112333 0 0 0 0 0 0 0 0 0 0 0 0 0 0 0 0 0 0 0 0 0 0 0 0 0 0 0 0 0 0 0 0 -0.00031665 -1.55748e-05 -0.000204471 -0.00144789 -5.63682e-05 -0.000300341 -1.17533e-05 -0.00012365 0 0 0 0 0 0 0 0 0 0 0 0 0 0 0 0 0 0 0 0 0 0 0 0 0 0 0 0 0 0 0 0 -0.000368753 -2.0256e-05 -0.000269722 -0.00186967 -6.25516e-05 -0.000344651 -1.65276e-05 -0.000136295 0 0 0 0 0 0 0 0 0 0 0 0 0 0 0 0 0 0 0 0 0 0 0 0 0 0 0 0 0 0 0 0 -0.000434716 -2.50164e-05 -0.000284032 -0.00237025 -6.91485e-05 -0.000398802 -2.15143e-05 -0.000150553 0 0 0 0 0 0 0 0 0 0 0 0 0 0 0 0 0 0 0 0 0 0 0 0 0 0 0 0 0 0 0 0 -0.000519976 -2.98775e-05 -0.000244091 -0.00271306 -7.62343e-05 -0.000465638 -2.67614e-05 -0.000166777 0 0 0 0 0 0 0 0 0 0 0 0 0 0 0 0 0 0 0 0 0 0 0 0 0 0 0 0 0 0 0 0 -0.000632908 -3.48633e-05 -0.00018774 -0.00192058 -8.3899e-05 -0.000548865 -3.2289e-05 -0.000185387 0 0 0 0 0 0 0 0 0 0 0 0 0 0 0 0 0 0 0 0 0 0 0 0 0 0 0 0 0 0 0 0 -0.000786921 -4.00007e-05 -0.000157178 -4.17468e-07 -9.22512e-05 -0.000653173 -3.80824e-05 -0.000206885 0 0 0 0 0 0 0 0 0 0 0 0 0 0 0 0 0 0 0 0 0 0 0 0 0 0 0 0 0 0 0 0 -0.00100449 -4.53213e-05 -0.00017054 -4.92387e-06 -0.000101423 -0.000784058 -4.40996e-05 -0.000231878 0 0 0 0 0 0 0 0 0 0 0 0 0 0 0 0 0 0 0 0 0 0 0 0 0 0 0 0 0 0 0 0 -0.00132525 -5.08628e-05 -0.000217455 -9.48195e-06 -0.000111575 -0.000946683 -5.02967e-05 -0.000261129 0 0 0 0 0 0 0 0 0 0 0 0 0 0 0 0 0 0 0 0 0 0 0 0 0 0 0 0 0 0 0 0 -0.00182298 -5.66721e-05 -0.000318026 -1.4111e-05 -0.000122905 -0.00114183 -5.66666e-05 -0.00029562 0 0 0 0 0 0 0 0 0 0 0 0 0 0 0 0 0 0 0 0 0 0 0 0 0 0 0 0 0 0 0 0 -0.00264162 -6.28075e-05 -0.00040619 -1.88391e-05 -0.000135659 -0.00135377 -6.32695e-05 -0.000336631 0 0 0 0 0 0 0 0 0 0 0 0 0 0 0 0 0 0 0 0 0 0 0 0 0 0 0 0 0 0 0 0 -0.00406376 -6.9341e-05 -0.000487229 -2.36995e-05 -0.000150139 -0.00151762 -7.02357e-05 -0.000385821 0 0 0 0 0 0 0 0 0 0 0 0 0 0 0 0 0 0 0 0 0 0 0 0 0 0 0 0 0 0 0 0 -0.00654135 -7.63601e-05 -0.000581267 -2.87224e-05 -0.000166727 -0.00144534 -7.77441e-05 -0.000445302 0 0 0 0 0 0 0 0 0 0 0 0 0 0 0 0 0 0 0 0 0 0 0 0 0 0 0 0 0 0 0 0 -0.00941766 -8.39699e-05 -0.00068469 -3.39287e-05 -0.000185905 -0.00074625 -8.59853e-05 -0.000517666 0 0 0 0 0 0 0 0 0 0 0 0 0 0 0 0 0 0 0 0 0 0 0 0 0 0 0 0 0 0 0 0 -2.2408e-06 -9.22945e-05 -0.000787401 -3.93274e-05 -0.000208286 -1.41248e-06 -9.51034e-05 -0.000605875 0 0 0 0 0 0 0 0 0 0 0 0 0 0 0 0 0 0 0 0 0 0 0 0 0 0 0 0 0 0 0 0 -6.76102e-06 -0.000101482 -0.000918193 -4.49196e-05 -0.000234665 -5.97535e-06 -0.000105103 -0.000712722 0 0 0 0 0 0 0 0 0 0 0 0 0 0 0 0 0 0 0 0 0 0 0 0 0 0 0 0 0 0 0 0 -1.13049e-05 -0.000111708 -0.00113581 -5.07108e-05 -0.000266072 -1.05723e-05 -0.000115889 -0.000839197 0 0 0 0 0 0 0 0 0 0 0 0 0 0 0 0 0 0 0 0 0 0 0 0 0 0 0 0 0 0 0 0 -1.5883e-05 -0.000123192 -0.00149765 -5.67268e-05 -0.000303866 -1.52178e-05 -0.00012736 -0.000980192 0 0 0 0 0 0 0 0 0 0 0 0 0 0 0 0 0 0 0 0 0 0 0 0 0 0 0 0 0 0 0 0 -2.05096e-05 -0.000136201 -0.00204355 -6.30274e-05 -0.000349851 -1.99309e-05 -0.000139587 -0.00111405 0 0 0 0 0 0 0 0 0 0 0 0 0 0 0 0 0 0 0 0 0 0 0 0 0 0 0 0 0 0 0 0 -2.52036e-05 -0.000151078 -0.00278004 -6.97076e-05 -0.000406446 -2.4734e-05 -0.000152967 -0.00117977 0 0 0 0 0 0 0 0 0 0 0 0 0 0 0 0 0 0 0 0 0 0 0 0 0 0 0 0 0 0 0 0 -2.99878e-05 -0.000168251 -0.0035114 -7.68895e-05 -0.000476905 -2.9651e-05 -0.000168287 -0.00103944 0 0 0 0 0 0 0 0 0 0 0 0 0 0 0 0 0 0 0 0 0 0 0 0 0 0 0 0 0 0 0 0 -3.48894e-05 -0.000188273 -0.00298002 -8.47108e-05 -0.000565608 -3.47072e-05 -0.000186527 -0.000478096 0 0 0 0 0 0 0 0 0 0 0 0 0 0 0 0 0 0 0 0 0 0 0 0 0 0 0 0 0 0 0 0 -3.99408e-05 -0.000211857 6.47142e-07 -9.33051e-05 -0.000678363 -3.99294e-05 -0.000208538 -4.52402e-07 0 0 0 0 0 0 0 0 0 0 0 0 0 0 0 0 0 0 0 0 0 0 0 0 0 0 0 0 0 0 0 0 -4.51799e-05 -0.000239941 -3.60775e-06 -0.000102768 -0.00082255 -4.53472e-05 -0.000234929 -4.82286e-06 0 0 0 0 0 0 0 0 0 0 0 0 0 0 0 0 0 0 0 0 0 0 0 0 0 0 0 0 0 0 0 0 -5.06507e-05 -0.000273787 -7.57922e-06 -0.000113178 -0.00100647 -5.09949e-05 -0.000266226 -9.22885e-06 0 0 0 0 0 0 0 0 0 0 0 0 0 0 0 0 0 0 0 0 0 0 0 0 0 0 0 0 0 0 0 0 -5.64053e-05 -0.000315128 -1.12325e-05 -0.00012464 -0.0012359 -5.69136e-05 -0.000303156 -1.37038e-05 0 0 0 0 0 0 0 0 0 0 0 0 0 0 0 0 0 0 0 0 0 0 0 0 0 0 0 0 0 0 0 0 -6.25042e-05 -0.000366389 -1.45646e-05 -0.000137359 -0.00150188 -6.31537e-05 -0.000346823 -1.82838e-05 0 0 0 0 0 0 0 0 0 0 0 0 0 0 0 0 0 0 0 0 0 0 0 0 0 0 0 0 0 0 0 0 -6.90191e-05 -0.000431046 -1.73792e-05 -0.000151701 -0.00174297 -6.97779e-05 -0.000398799 -2.3004e-05 0 0 0 0 0 0 0 0 0 0 0 0 0 0 0 0 0 0 0 0 0 0 0 0 0 0 0 0 0 0 0 0 -7.60348e-05 -0.000514197 -1.84805e-05 -0.000168234 -0.00174468 -7.68631e-05 -0.000461209 -2.78967e-05 0 0 0 0 0 0 0 0 0 0 0 0 0 0 0 0 0 0 0 0 0 0 0 0 0 0 0 0 0 0 0 0 -8.36525e-05 -0.000623535 -1.43038e-05 -0.000187669 -0.000975076 -8.45027e-05 -0.000536861 -3.29891e-05 0 0 0 0 0 0 0 0 0 0 0 0 0 0 0 0 0 0 0 0 0 0 0 0 0 0 0 0 0 0 0 0 -9.19936e-05 -0.000771014 3.64164e-07 -0.000210769 -2.08163e-06 -9.28101e-05 -0.000629481 -3.83039e-05 0 0 0 0 0 0 0 0 0 0 0 0 0 0 0 0 0 0 0 0 0 0 0 0 0 0 0 0 0 0 0 0 -0.000101205 -0.000975802 2.33795e-05 -0.000238358 -6.59174e-06 -0.000101921 -0.000743647 -4.38613e-05 0 0 0 0 0 0 0 0 0 0 0 0 0