# vtk DataFile Version 2.0
Velocidad
ASCII

DATASET STRUCTURED_GRID
DIMENSIONS   40   40   30

POINTS   48000   double
0.0125   0.0125   0.0166667
0.0375   0.0125   0.0166667
0.0625   0.0125   0.0166667
0.0875   0.0125   0.0166667
0.1125   0.0125   0.0166667
0.1375   0.0125   0.0166667
0.1625   0.0125   0.0166667
0.1875   0.0125   0.0166667
0.2125   0.0125   0.0166667
0.2375   0.0125   0.0166667
0.2625   0.0125   0.0166667
0.2875   0.0125   0.0166667
0.3125   0.0125   0.0166667
0.3375   0.0125   0.0166667
0.3625   0.0125   0.0166667
0.3875   0.0125   0.0166667
0.4125   0.0125   0.0166667
0.4375   0.0125   0.0166667
0.4625   0.0125   0.0166667
0.4875   0.0125   0.0166667
0.5125   0.0125   0.0166667
0.5375   0.0125   0.0166667
0.5625   0.0125   0.0166667
0.5875   0.0125   0.0166667
0.6125   0.0125   0.0166667
0.6375   0.0125   0.0166667
0.6625   0.0125   0.0166667
0.6875   0.0125   0.0166667
0.7125   0.0125   0.0166667
0.7375   0.0125   0.0166667
0.7625   0.0125   0.0166667
0.7875   0.0125   0.0166667
0.8125   0.0125   0.0166667
0.8375   0.0125   0.0166667
0.8625   0.0125   0.0166667
0.8875   0.0125   0.0166667
0.9125   0.0125   0.0166667
0.9375   0.0125   0.0166667
0.9625   0.0125   0.0166667
0.9875   0.0125   0.0166667
0.0125   0.0375   0.0166667
0.0375   0.0375   0.0166667
0.0625   0.0375   0.0166667
0.0875   0.0375   0.0166667
0.1125   0.0375   0.0166667
0.1375   0.0375   0.0166667
0.1625   0.0375   0.0166667
0.1875   0.0375   0.0166667
0.2125   0.0375   0.0166667
0.2375   0.0375   0.0166667
0.2625   0.0375   0.0166667
0.2875   0.0375   0.0166667
0.3125   0.0375   0.0166667
0.3375   0.0375   0.0166667
0.3625   0.0375   0.0166667
0.3875   0.0375   0.0166667
0.4125   0.0375   0.0166667
0.4375   0.0375   0.0166667
0.4625   0.0375   0.0166667
0.4875   0.0375   0.0166667
0.5125   0.0375   0.0166667
0.5375   0.0375   0.0166667
0.5625   0.0375   0.0166667
0.5875   0.0375   0.0166667
0.6125   0.0375   0.0166667
0.6375   0.0375   0.0166667
0.6625   0.0375   0.0166667
0.6875   0.0375   0.0166667
0.7125   0.0375   0.0166667
0.7375   0.0375   0.0166667
0.7625   0.0375   0.0166667
0.7875   0.0375   0.0166667
0.8125   0.0375   0.0166667
0.8375   0.0375   0.0166667
0.8625   0.0375   0.0166667
0.8875   0.0375   0.0166667
0.9125   0.0375   0.0166667
0.9375   0.0375   0.0166667
0.9625   0.0375   0.0166667
0.9875   0.0375   0.0166667
0.0125   0.0625   0.0166667
0.0375   0.0625   0.0166667
0.0625   0.0625   0.0166667
0.0875   0.0625   0.0166667
0.1125   0.0625   0.0166667
0.1375   0.0625   0.0166667
0.1625   0.0625   0.0166667
0.1875   0.0625   0.0166667
0.2125   0.0625   0.0166667
0.2375   0.0625   0.0166667
0.2625   0.0625   0.0166667
0.2875   0.0625   0.0166667
0.3125   0.0625   0.0166667
0.3375   0.0625   0.0166667
0.3625   0.0625   0.0166667
0.3875   0.0625   0.0166667
0.4125   0.0625   0.0166667
0.4375   0.0625   0.0166667
0.4625   0.0625   0.0166667
0.4875   0.0625   0.0166667
0.5125   0.0625   0.0166667
0.5375   0.0625   0.0166667
0.5625   0.0625   0.0166667
0.5875   0.0625   0.0166667
0.6125   0.0625   0.0166667
0.6375   0.0625   0.0166667
0.6625   0.0625   0.0166667
0.6875   0.0625   0.0166667
0.7125   0.0625   0.0166667
0.7375   0.0625   0.0166667
0.7625   0.0625   0.0166667
0.7875   0.0625   0.0166667
0.8125   0.0625   0.0166667
0.8375   0.0625   0.0166667
0.8625   0.0625   0.0166667
0.8875   0.0625   0.0166667
0.9125   0.0625   0.0166667
0.9375   0.0625   0.0166667
0.9625   0.0625   0.0166667
0.9875   0.0625   0.0166667
0.0125   0.0875   0.0166667
0.0375   0.0875   0.0166667
0.0625   0.0875   0.0166667
0.0875   0.0875   0.0166667
0.1125   0.0875   0.0166667
0.1375   0.0875   0.0166667
0.1625   0.0875   0.0166667
0.1875   0.0875   0.0166667
0.2125   0.0875   0.0166667
0.2375   0.0875   0.0166667
0.2625   0.0875   0.0166667
0.2875   0.0875   0.0166667
0.3125   0.0875   0.0166667
0.3375   0.0875   0.0166667
0.3625   0.0875   0.0166667
0.3875   0.0875   0.0166667
0.4125   0.0875   0.0166667
0.4375   0.0875   0.0166667
0.4625   0.0875   0.0166667
0.4875   0.0875   0.0166667
0.5125   0.0875   0.0166667
0.5375   0.0875   0.0166667
0.5625   0.0875   0.0166667
0.5875   0.0875   0.0166667
0.6125   0.0875   0.0166667
0.6375   0.0875   0.0166667
0.6625   0.0875   0.0166667
0.6875   0.0875   0.0166667
0.7125   0.0875   0.0166667
0.7375   0.0875   0.0166667
0.7625   0.0875   0.0166667
0.7875   0.0875   0.0166667
0.8125   0.0875   0.0166667
0.8375   0.0875   0.0166667
0.8625   0.0875   0.0166667
0.8875   0.0875   0.0166667
0.9125   0.0875   0.0166667
0.9375   0.0875   0.0166667
0.9625   0.0875   0.0166667
0.9875   0.0875   0.0166667
0.0125   0.1125   0.0166667
0.0375   0.1125   0.0166667
0.0625   0.1125   0.0166667
0.0875   0.1125   0.0166667
0.1125   0.1125   0.0166667
0.1375   0.1125   0.0166667
0.1625   0.1125   0.0166667
0.1875   0.1125   0.0166667
0.2125   0.1125   0.0166667
0.2375   0.1125   0.0166667
0.2625   0.1125   0.0166667
0.2875   0.1125   0.0166667
0.3125   0.1125   0.0166667
0.3375   0.1125   0.0166667
0.3625   0.1125   0.0166667
0.3875   0.1125   0.0166667
0.4125   0.1125   0.0166667
0.4375   0.1125   0.0166667
0.4625   0.1125   0.0166667
0.4875   0.1125   0.0166667
0.5125   0.1125   0.0166667
0.5375   0.1125   0.0166667
0.5625   0.1125   0.0166667
0.5875   0.1125   0.0166667
0.6125   0.1125   0.0166667
0.6375   0.1125   0.0166667
0.6625   0.1125   0.0166667
0.6875   0.1125   0.0166667
0.7125   0.1125   0.0166667
0.7375   0.1125   0.0166667
0.7625   0.1125   0.0166667
0.7875   0.1125   0.0166667
0.8125   0.1125   0.0166667
0.8375   0.1125   0.0166667
0.8625   0.1125   0.0166667
0.8875   0.1125   0.0166667
0.9125   0.1125   0.0166667
0.9375   0.1125   0.0166667
0.9625   0.1125   0.0166667
0.9875   0.1125   0.0166667
0.0125   0.1375   0.0166667
0.0375   0.1375   0.0166667
0.0625   0.1375   0.0166667
0.0875   0.1375   0.0166667
0.1125   0.1375   0.0166667
0.1375   0.1375   0.0166667
0.1625   0.1375   0.0166667
0.1875   0.1375   0.0166667
0.2125   0.1375   0.0166667
0.2375   0.1375   0.0166667
0.2625   0.1375   0.0166667
0.2875   0.1375   0.0166667
0.3125   0.1375   0.0166667
0.3375   0.1375   0.0166667
0.3625   0.1375   0.0166667
0.3875   0.1375   0.0166667
0.4125   0.1375   0.0166667
0.4375   0.1375   0.0166667
0.4625   0.1375   0.0166667
0.4875   0.1375   0.0166667
0.5125   0.1375   0.0166667
0.5375   0.1375   0.0166667
0.5625   0.1375   0.0166667
0.5875   0.1375   0.0166667
0.6125   0.1375   0.0166667
0.6375   0.1375   0.0166667
0.6625   0.1375   0.0166667
0.6875   0.1375   0.0166667
0.7125   0.1375   0.0166667
0.7375   0.1375   0.0166667
0.7625   0.1375   0.0166667
0.7875   0.1375   0.0166667
0.8125   0.1375   0.0166667
0.8375   0.1375   0.0166667
0.8625   0.1375   0.0166667
0.8875   0.1375   0.0166667
0.9125   0.1375   0.0166667
0.9375   0.1375   0.0166667
0.9625   0.1375   0.0166667
0.9875   0.1375   0.0166667
0.0125   0.1625   0.0166667
0.0375   0.1625   0.0166667
0.0625   0.1625   0.0166667
0.0875   0.1625   0.0166667
0.1125   0.1625   0.0166667
0.1375   0.1625   0.0166667
0.1625   0.1625   0.0166667
0.1875   0.1625   0.0166667
0.2125   0.1625   0.0166667
0.2375   0.1625   0.0166667
0.2625   0.1625   0.0166667
0.2875   0.1625   0.0166667
0.3125   0.1625   0.0166667
0.3375   0.1625   0.0166667
0.3625   0.1625   0.0166667
0.3875   0.1625   0.0166667
0.4125   0.1625   0.0166667
0.4375   0.1625   0.0166667
0.4625   0.1625   0.0166667
0.4875   0.1625   0.0166667
0.5125   0.1625   0.0166667
0.5375   0.1625   0.0166667
0.5625   0.1625   0.0166667
0.5875   0.1625   0.0166667
0.6125   0.1625   0.0166667
0.6375   0.1625   0.0166667
0.6625   0.1625   0.0166667
0.6875   0.1625   0.0166667
0.7125   0.1625   0.0166667
0.7375   0.1625   0.0166667
0.7625   0.1625   0.0166667
0.7875   0.1625   0.0166667
0.8125   0.1625   0.0166667
0.8375   0.1625   0.0166667
0.8625   0.1625   0.0166667
0.8875   0.1625   0.0166667
0.9125   0.1625   0.0166667
0.9375   0.1625   0.0166667
0.9625   0.1625   0.0166667
0.9875   0.1625   0.0166667
0.0125   0.1875   0.0166667
0.0375   0.1875   0.0166667
0.0625   0.1875   0.0166667
0.0875   0.1875   0.0166667
0.1125   0.1875   0.0166667
0.1375   0.1875   0.0166667
0.1625   0.1875   0.0166667
0.1875   0.1875   0.0166667
0.2125   0.1875   0.0166667
0.2375   0.1875   0.0166667
0.2625   0.1875   0.0166667
0.2875   0.1875   0.0166667
0.3125   0.1875   0.0166667
0.3375   0.1875   0.0166667
0.3625   0.1875   0.0166667
0.3875   0.1875   0.0166667
0.4125   0.1875   0.0166667
0.4375   0.1875   0.0166667
0.4625   0.1875   0.0166667
0.4875   0.1875   0.0166667
0.5125   0.1875   0.0166667
0.5375   0.1875   0.0166667
0.5625   0.1875   0.0166667
0.5875   0.1875   0.0166667
0.6125   0.1875   0.0166667
0.6375   0.1875   0.0166667
0.6625   0.1875   0.0166667
0.6875   0.1875   0.0166667
0.7125   0.1875   0.0166667
0.7375   0.1875   0.0166667
0.7625   0.1875   0.0166667
0.7875   0.1875   0.0166667
0.8125   0.1875   0.0166667
0.8375   0.1875   0.0166667
0.8625   0.1875   0.0166667
0.8875   0.1875   0.0166667
0.9125   0.1875   0.0166667
0.9375   0.1875   0.0166667
0.9625   0.1875   0.0166667
0.9875   0.1875   0.0166667
0.0125   0.2125   0.0166667
0.0375   0.2125   0.0166667
0.0625   0.2125   0.0166667
0.0875   0.2125   0.0166667
0.1125   0.2125   0.0166667
0.1375   0.2125   0.0166667
0.1625   0.2125   0.0166667
0.1875   0.2125   0.0166667
0.2125   0.2125   0.0166667
0.2375   0.2125   0.0166667
0.2625   0.2125   0.0166667
0.2875   0.2125   0.0166667
0.3125   0.2125   0.0166667
0.3375   0.2125   0.0166667
0.3625   0.2125   0.0166667
0.3875   0.2125   0.0166667
0.4125   0.2125   0.0166667
0.4375   0.2125   0.0166667
0.4625   0.2125   0.0166667
0.4875   0.2125   0.0166667
0.5125   0.2125   0.0166667
0.5375   0.2125   0.0166667
0.5625   0.2125   0.0166667
0.5875   0.2125   0.0166667
0.6125   0.2125   0.0166667
0.6375   0.2125   0.0166667
0.6625   0.2125   0.0166667
0.6875   0.2125   0.0166667
0.7125   0.2125   0.0166667
0.7375   0.2125   0.0166667
0.7625   0.2125   0.0166667
0.7875   0.2125   0.0166667
[...]
POINT_DATA   48000
VECTORS Velocidad double

3.4982e-05 -3.80938e-06 4.21923e-08
0.000104945 -1.11586e-05 9.59076e-08
0.000174922 -1.74309e-05 1.39459e-07
0.000244924 -2.20659e-05 1.75964e-07
0.000314938 -2.47831e-05 2.05608e-07
0.00038495 -2.55752e-05 2.25769e-07
0.000454939 -2.46507e-05 2.31017e-07
0.000524886 -2.23528e-05 2.12605e-07
0.000594772 -1.907e-05 1.57474e-07
0.000665079 -1.51535e-05 4.67624e-08
0.000735216 -1.08534e-05 0
0.000803958 -6.2735e-06 0
0.000871376 -1.40159e-06 0
0.000937613 3.89627e-06 0
0.00100252 9.8767e-06 0
0.00106597 1.6891e-05 0
0.00112785 2.53783e-05 0
0.00118823 3.58919e-05 0
0.00124786 4.92055e-05 0
0.00140406 6.6307e-05 0
0.00148034 9.28193e-05 0
0.00143744 9.88109e-05 0
0.00143714 9.82325e-05 0
0.00142103 9.36495e-05 0
0.00140423 8.60892e-05 0
0.00138997 7.67804e-05 0
0.00138132 6.70445e-05 0
0.00138086 5.82301e-05 0
0.00139219 5.17713e-05 0
0.00153916 4.92459e-05 0
0.00163122 5.57488e-05 0
0.00156223 5.10732e-05 0
0.00148718 4.5652e-05 0
0.00136485 4.14439e-05 0
0.00120548 3.92792e-05 0
0.00101015 4.02253e-05 0
0.00077949 4.57562e-05 0
0.000513806 5.81414e-05 0
0.000214065 7.86508e-05 0
2.79236e-05 0.000104443 0
0.000104765 -1.10123e-05 9.34099e-08
0.000314309 -3.22609e-05 2.39553e-07
0.000523898 -5.04325e-05 3.63859e-07
0.000733535 -6.39157e-05 4.71439e-07
0.00094319 -7.18916e-05 5.61304e-07
0.00115281 -7.43167e-05 6.25225e-07
0.00136234 -7.17666e-05 6.46857e-07
0.00157169 -6.52104e-05 6.00039e-07
0.00178077 -5.57591e-05 4.45774e-07
0.00199016 -4.44268e-05 1.2753e-07
0.00219866 -3.19428e-05 0
0.00240403 -1.86259e-05 0
0.00260594 -4.44792e-06 0
0.00280429 1.0998e-05 0
0.00299866 2.84553e-05 0
0.00318858 4.89447e-05 0
0.00337365 7.37349e-05 0
0.00355381 0.000104381 0
0.00373019 0.000142899 0
0.00404322 0.000191528 0
0.00423653 0.00026103 0
0.00422833 0.000279419 0
0.00425534 0.000280631 0
0.00425474 0.000268061 0
0.00424623 0.000246146 0
0.00423964 0.000219022 0
0.00424285 0.000190708 0
0.00426212 0.000165099 0
0.00430435 0.000146152 0
0.00454541 0.000137935 0
0.00470014 0.000150997 0
0.00457224 0.000137536 0
0.00436722 0.000123419 0
0.00403931 0.000111291 0
0.00360123 0.000104295 0
0.00306089 0.000105154 0
0.0024301 0.000116359 0
0.00172872 0.00013955 0
0.000997043 0.000169689 0
0.000315271 0.000177831 0
0.000173698 -1.70313e-05 1.29772e-07
0.000521126 -4.99441e-05 3.47545e-07
0.000868627 -7.82073e-05 5.40062e-07
0.0012162 -9.93469e-05 7.11602e-07
0.00156378 -0.00011207 8.58596e-07
0.00191131 -0.000116243 9.66707e-07
0.00225866 -0.000112675 1.00877e-06
0.00260568 -0.000102798 9.41763e-07
0.00295218 -8.82937e-05 7.01728e-07
0.00329864 -7.07303e-05 1.95964e-07
0.00364343 -5.1257e-05 1.36576e-07
0.00398365 -3.04013e-05 3.53196e-08
0.00431857 -8.14621e-06 -1.45478e-07
0.00464771 1.61554e-05 -4.52772e-07
0.00497025 4.36783e-05 -9.47692e-07
0.0052853 7.6043e-05 -1.71572e-06
0.00559199 0.00011525 -2.89104e-06
0.00588975 0.000163675 -4.7053e-06
0.0061791 0.000224151 -7.6604e-06
0.00662357 0.000299294 -1.2793e-05
0.00691519 0.000399641 -2.73547e-05
0.00695874 0.000431374 -3.00625e-05
0.00703595 0.000435991 -2.87073e-05
0.00707251 0.000416489 -2.59934e-05
0.00709494 0.000381109 -2.29708e-05
0.00711642 0.000337165 -2.01145e-05
0.00714754 0.000291341 -1.77659e-05
0.00719595 0.000249804 -1.62959e-05
0.00726824 0.000218483 -1.63123e-05
0.00756022 0.000202996 -1.89528e-05
0.00772993 0.00021495 -3.13531e-05
0.00754132 0.000194147 -3.40437e-05
0.00722034 0.000172701 -3.37545e-05
0.00670531 0.000152788 -3.29676e-05
0.00601068 0.000139555 -3.27236e-05
0.00514775 0.000136401 -3.37282e-05
0.00413644 0.000144495 -3.69981e-05
0.00300842 0.000160418 -4.45374e-05
0.00181054 0.000168916 -5.84219e-05
0.00060052 0.000123906 -8.0845e-05
0.000241272 -2.133e-05 1.5446e-07
0.000723866 -6.26794e-05 4.24501e-07
0.00120656 -9.84037e-05 6.70912e-07
0.00168934 -0.000125433 8.96596e-07
0.00217215 -0.000142098 1.09481e-06
0.00265488 -0.000148118 1.24504e-06
0.00313738 -0.000144358 1.30984e-06
0.00361941 -0.00013249 1.23036e-06
0.00410067 -0.000114558 9.19394e-07
0.00458152 -9.25261e-05 2.50676e-07
0.00505996 -6.78748e-05 1.23229e-07
0.00553259 -4.13134e-05 -3.80419e-07
0.00599829 -1.287e-05 -1.21257e-06
0.00645614 1.82703e-05 -2.5586e-06
0.00690488 5.36417e-05 -4.64773e-06
0.00734309 9.53855e-05 -7.79518e-06
0.00776929 0.000146147 -1.24685e-05
0.00818214 0.000209023 -1.94072e-05
0.00858116 0.000287559 -2.98886e-05
0.00914935 0.000384704 -4.61972e-05
0.00953371 0.000512093 -7.54372e-05
0.00963399 0.000555399 -9.26005e-05
0.00977343 0.000560398 -9.44994e-05
0.00986261 0.000532774 -8.96352e-05
0.0099324 0.000483667 -8.20225e-05
0.00999741 0.000423209 -7.39342e-05
0.010069 0.000360448 -6.69635e-05
0.0101541 0.000303451 -6.25977e-05
0.010257 0.000259683 -6.26778e-05
0.0105851 0.000235885 -6.99962e-05
0.0107522 0.000245181 -9.22142e-05
0.0105002 0.000217193 -0.000106993
0.0100715 0.000187101 -0.000109528
0.00938317 0.000158603 -0.000107611
0.0084469 0.000137874 -0.000104163
0.00727344 0.00012851 -0.000100191
0.00588614 0.000130432 -9.53003e-05
0.00432283 0.000137521 -8.66529e-05
0.00263567 0.000132885 -6.62671e-05
0.00088424 8.3174e-05 -6.83333e-06
0.000307117 -2.37024e-05 1.69839e-07
0.000921422 -6.98531e-05 4.75159e-07
0.00153586 -0.000110035 7.61392e-07
0.0021504 -0.000140874 1.03026e-06
0.00276499 -0.000160456 1.27189e-06
0.00337952 -0.000168307 1.46005e-06
0.00399378 -0.000165191 1.54793e-06
0.00460749 -0.000152788 1.4624e-06
0.00522024 -0.000133284 1.09533e-06
0.00583226 -0.000108863 2.90278e-07
0.00644126 -8.12321e-05 -1.73784e-07
0.00704339 -5.12518e-05 -1.26497e-06
0.00763712 -1.90245e-05 -3.0218e-06
0.00822115 1.63613e-05 -5.78398e-06
0.00879369 5.67076e-05 -9.98509e-06
0.00935275 0.000104587 -1.62096e-05
0.00989613 0.000163222 -2.52846e-05
0.0104216 0.000236416 -3.84217e-05
0.0109277 0.000328513 -5.7486e-05
0.0116193 0.000443077 -8.52449e-05
0.0120947 0.00059393 -0.000128805
0.0122517 0.000643082 -0.000156398
0.012461 0.000644225 -0.000163182
0.0126142 0.000605776 -0.00015817
0.0127445 0.000541915 -0.000147492
0.0128662 0.000465215 -0.000135199
0.0129895 0.000386556 -0.000124326
0.0131194 0.000315342 -0.000117617
0.0132565 0.000260043 -0.000118087
0.0136203 0.000228169 -0.000129495
0.0137811 0.000234465 -0.000159829
0.0134665 0.000197704 -0.000181365
0.0129384 0.000157998 -0.000187044
0.0120884 0.000120452 -0.000184314
0.0109218 9.23978e-05 -0.000177012
0.00944478 7.78628e-05 -0.000166304
0.00768049 7.65511e-05 -0.000151104
0.00567091 8.22311e-05 -0.000127691
0.00347646 8.07295e-05 -8.89415e-05
0.00117082 4.96437e-05 -2.89557e-05
0.000371011 -2.42358e-05 1.77575e-07
0.00111313 -7.16976e-05 5.03428e-07
0.0018554 -0.000113394 8.16332e-07
0.00259781 -0.000145921 1.11725e-06
0.00334031 -0.000167261 1.39358e-06
0.00408278 -0.000176756 1.61405e-06
0.00482502 -0.000174948 1.72375e-06
0.00556667 -0.000163352 1.63716e-06
0.00630725 -0.000144094 1.22789e-06
0.00704693 -0.000119418 3.13326e-07
0.0077831 -9.11517e-05 -4.62532e-07
0.0085115 -6.02732e-05 -2.09891e-06
0.00923027 -2.69867e-05 -4.71152e-06
0.00993767 9.63881e-06 -8.77091e-06
0.0106314 5.15695e-05 -1.48847e-05
0.0113089 0.000101706 -2.38628e-05
0.0119671 0.000163784 -3.68109e-05
0.012603 0.000242332 -5.52624e-05
0.0132139 0.000342667 -8.14008e-05
0.0140311 0.000469325 -0.00011815
0.0145965 0.000639409 -0.000172552
0.0148076 0.000686649 -0.000207614
0.0150929 0.000678135 -0.000217901
0.0153198 0.000625307 -0.000213087
0.0155226 0.000545469 -0.000200481
0.0157132 0.000453139 -0.00018533
0.0158996 0.000360295 -0.000171744
0.0160836 0.00027691 -0.000163399
0.0162618 0.000211813 -0.000164086
0.0166672 0.000172813 -0.000178051
0.0168251 0.000176179 -0.000213304
0.016452 0.000129051 -0.00023847
0.0158348 7.91541e-05 -0.000245402
0.0148351 3.30843e-05 -0.000241402
0.0134487 -4.08224e-07 -0.000230447
0.0116735 -1.6462e-05 -0.000213729
0.00952962 -1.47409e-05 -0.000190092
0.00706236 -2.94293e-07 -0.000156184
0.00434311 1.58894e-05 -0.000107078
0.0014655 1.81045e-05 -3.93814e-05
0.000432875 -2.32189e-05 1.78864e-07
0.00129874 -6.90278e-05 5.12275e-07
0.00216481 -0.000109675 8.39771e-07
0.00303105 -0.000141943 1.16201e-06
0.00389742 -0.000163857 1.46414e-06
0.00476384 -0.000174623 1.71068e-06
0.0056301 -0.000174521 1.83991e-06
0.00649582 -0.00016479 1.756e-06
0.00736045 -0.000147362 1.31722e-06
0.00822414 -0.000124404 3.18947e-07
0.00908402 -9.77801e-05 -7.34331e-07
0.00993541 -6.85527e-05 -2.85464e-06
0.0107761 -3.70603e-05 -6.22664e-06
0.0116041 -2.43875e-06 -1.14317e-05
0.0124165 3.73169e-05 -1.92228e-05
0.01321 8.53029e-05 -3.05945e-05
0.013981 0.00014567 -4.68715e-05
0.0147251 0.000223675 -6.98264e-05
0.0154388 0.0003258 -0.000101868
0.016385 0.000457973 -0.000146037
0.017038 0.000641876 -0.000209612
0.0172988 0.0006776 -0.000250662
0.0176663 0.000652529 -0.000263582
0.0179766 0.000581616 -0.000258772
0.0182636 0.000485134 -0.000244525
0.0185356 0.000378735 -0.000226991
0.0187968 0.000274474 -0.000211084
0.0190455 0.000181921 -0.000201166
0.0192737 0.000109463 -0.000201567
0.0197301 6.46595e-05 -0.000216847
0.0198914 6.50934e-05 -0.000255181
0.0194673 6.3549e-06 -0.000282107
0.018774 -5.3579e-05 -0.000289009
0.0176383 -0.000106432 -0.000283092
0.0160433 -0.000141899 -0.000268446
0.0139752 -0.000154081 -0.000246352
0.0114486 -0.000141612 -0.000215865
0.00851098 -0.000108029 -0.000174304
0.00524662 -6.17811e-05 -0.000118079
0.00177276 -1.49988e-05 -4.48898e-05
0.000492771 -2.1012e-05 1.74608e-07
0.00147846 -6.28749e-05 5.04036e-07
0.00246439 -0.000100432 8.35134e-07
0.00345053 -0.000130807 1.16874e-06
0.00443688 -0.000152188 1.48818e-06
0.00542338 -0.000163721 1.7545e-06
0.00640982 -0.000165451 1.90053e-06
0.00739584 -0.000158304 1.82218e-06
0.00838087 -0.000143943 1.36539e-06
0.00936506 -0.00012438 3.07802e-07
0.0103453 -0.000101448 -9.84282e-07
0.0113165 -7.62745e-05 -3.51901e-06
0.0122763 -4.93751e-05 -7.54263e-06
0.0132221 -2.0058e-05 -1.37305e-05
0.0141508 1.35611e-05 -2.29581e-05
0.0150584 5.45832e-05 -3.63747e-05
0.0159402 0.000107399 -5.54897e-05
0.016791 0.000177916 -8.22831e-05
0.0176055 0.000273914 -0.000119384
0.0186847 0.000403177 -0.000170023
0.0194213 0.000593607 -0.000241982
0.0197257 0.000606362 -0.000288208
0.0201829 0.000557544 -0.000303125
0.0205873 0.000465775 -0.000297963
0.0209711 0.000353562 -0.000281974
0.0213371 0.000236361 -0.000262083
0.0216855 0.000124936 -0.000243837
0.02201 2.72857e-05 -0.000232121
0.0222986 -4.95614e-05 -0.000231677
0.0228165 -9.88987e-05 -0.000247341
0.0229893 -0.000102147 -0.000287605
0.0225238 -0.000173262 -0.000315117
0.0217705 -0.000242024 -0.000321121
0.0205146 -0.000298538 -0.000312843
0.0187237 -0.000331149 -0.00029458
0.0163688 -0.000333018 -0.000267818
0.0134556 -0.000301704 -0.00023195
0.0100329 -0.000239299 -0.000184921
0.00619861 -0.000152392 -0.000124039
0.00209694 -5.12447e-05 -4.74071e-05
0.000550893 -1.79277e-05 1.65663e-07
0.00165286 -5.41509e-05 4.80987e-07
0.00275512 -8.70845e-05 8.05885e-07
0.00385764 -0.000114284 1.14186e-06
0.00496046 -0.000134182 1.47082e-06
0.00606354 -0.000145944 1.75104e-06
0.00716673 -0.000149429 1.91108e-06
0.00826968 -0.000145276 1.84068e-06
0.00937181 -0.000134865 1.37649e-06
0.0104733 -0.000120015 2.82804e-07
0.011571 -0.000102491 -1.21072e-06
0.0126592 -8.34895e-05 -4.08831e-06
0.0137354 -6.37574e-05 -8.65391e-06
0.0147969 -4.2906e-05 -1.56631e-05
0.0158399 -1.9381e-05 -2.60963e-05
0.0168599 9.64537e-06 -4.12384e-05
0.0178514 4.84935e-05 -6.2767e-05
0.0188077 0.000103459 -9.28662e-05
0.0197218 0.000183566 -0.000134414
0.0209384 0.000298858 -0.000190918
0.0217526 0.000485428 -0.000270887
0.0220936 0.000462202 -0.000321723
0.0226506 0.00038356 -0.000338114
0.0231617 0.000270702 -0.000332209
0.0236556 0.000146533 -0.000314236
0.0241286 2.42952e-05 -0.000291831
0.024576 -8.82084e-05 -0.000271074
0.0249878 -0.000185832 -0.000257264
0.0253475 -0.000263866 -0.000255484
0.0259378 -0.000317102 -0.000270843
0.0261304 -0.000326522 -0.000312265
0.0256361 -0.000410081 -0.000339562
0.0248416 -0.000485008 -0.000344137
0.0234838 -0.000540508 -0.000333311
0.0215113 -0.000564273 -0.00031169
0.0188763 -0.000548895 -0.000281042
0.015572 -0.000490967 -0.000241124
0.0116465 -0.000391236 -0.000190401
0.00721178 -0.000254828 -0.000126746
0.00244264 -9.09337e-05 -4.8433e-05
0.000607569 -1.41636e-05 1.53082e-07
0.00182293 -4.34502e-05 4.45963e-07
0.00303864 -7.06038e-05 7.56287e-07
0.00425466 -9.36596e-05 1.08674e-06
0.00547108 -0.000111329 1.41824e-06
0.00668791 -0.000122831 1.70692e-06
0.00790504 -0.000127897 1.87839e-06
0.00912216 -0.000126927 1.81811e-06
0.0103387 -0.000121041 1.35659e-06
0.011555 -0.000111862 2.49276e-07
0.0127676 -0.000101082 -1.41289e-06
0.0139707 -8.99788e-05 -4.56271e-06
0.0151613 -7.96012e-05 -9.56267e-06
0.0163367 -7.00191e-05 -1.72367e-05
0.0174928 -6.0271e-05 -2.86568e-05
0.0186245 -4.81892e-05 -4.52304e-05
0.0197252 -3.00331e-05 -6.87963e-05
0.0207869 2.99122e-07 -0.00010175
0.0218 5.25802e-05 -0.000147252
0.0231591 0.000139163 -0.000209167
0.0240435 0.000306242 -0.000296889
0.024415 0.000233679 -0.000351806
0.025086 0.000122666 -0.000369205
0.0257181 -6.8333e-06 -0.000362186
0.0263357 -0.000134999 -0.000341981
0.0269278 -0.00025345 -0.000316891
0.0274853 -0.00035908 -0.00029345
0.0279949 -0.000450755 -0.000277299
0.0284365 -0.000527 -0.000273803
0.0291083 -0.000584819 -0.000288345
0.0293298 -0.000605956 -0.000330351
0.0288226 -0.000700717 -0.000356852
0.0280085 -0.000777185 -0.000359721
0.0265692 -0.000825343 -0.000346385
0.0244311 -0.000833459 -0.000321817
0.0215232 -0.000794046 -0.000288092
0.0178223 -0.00070278 -0.000245303
0.0133726 -0.000558989 -0.000192303
0.00830044 -0.000366401 -0.000127305
0.00281497 -0.000133418 -4.85984e-05
0.000663256 -9.79853e-06 1.38244e-07
0.00199003 -3.10305e-05 4.0271e-07
0.00331722 -5.14594e-05 6.91874e-07
0.00464478 -6.96269e-05 1.01015e-06
0.00597285 -8.45056e-05 1.33798e-06
0.0073015 -9.53642e-05 1.63015e-06
0.00863065 -0.000101828 1.81057e-06
0.00996007 -0.000104102 1.76246e-06
0.0112892 -0.000103084 1.31335e-06
0.0126186 -0.000100213 2.14472e-07
0.0139446 -9.71137e-05 -1.58871e-06
0.015261 -9.51622e-05 -4.94155e-06
0.0165649 -9.57849e-05 -1.02702e-05
0.0178533 -9.96722e-05 -1.84561e-05
0.0191219 -0.000106753 -3.065e-05
0.0203653 -0.00011601 -4.8371e-05
0.0215761 -0.000125024 -7.3613e-05
0.0227446 -0.000128953 -0.000108989
0.0238582 -0.000118613 -0.000157972
0.0253648 -8.03012e-05 -0.00022483
0.0263117 4.26449e-05 -0.000319956
0.0267123 -8.95304e-05 -0.000378321
0.0275164 -0.000228138 -0.000396302
0.0282851 -0.000362818 -0.000387876
0.0290386 -0.00048206 -0.000365278
0.0297592 -0.000585034 -0.000337421
0.0304355 -0.000674551 -0.000311225
0.0310519 -0.000754179 -0.000292594
0.0315853 -0.000826421 -0.00028713
0.0323455 -0.000891407 -0.00030047
0.0326065 -0.000934323 -0.000342561
0.0321076 -0.00103644 -0.0003678
0.0312977 -0.00110735 -0.00036888
0.0297987 -0.00114042 -0.000353252
0.0275119 -0.00112601 -0.000326258
0.0243386 -0.00105686 -0.000290269
0.0202343 -0.000927483 -0.000245654
0.0152351 -0.000735443 -0.000191531
0.00948095 -0.000482842 -0.000126298
0.0032198 -0.000177304 -4.81797e-05
0.000718543 -4.84005e-06 1.22772e-07
0.00215593 -1.69348e-05 3.5573e-07
0.00359381 -2.97677e-05 6.19286e-07
0.00503212 -4.24107e-05 9.20085e-07
0.00647106 -5.40562e-05 1.23881e-06
0.00791073 -6.39778e-05 1.52987e-06
0.00935114 -7.16857e-05 1.7168e-06
0.0107921 -7.72066e-05 1.68272e-06
0.0122332 -8.12363e-05 1.25538e-06
0.013675 -8.50381e-05 1.86539e-07
0.0151138 -9.01612e-05 -1.73349e-06
0.0165431 -9.80896e-05 -5.22067e-06
0.0179599 -0.000110677 -1.07723e-05
0.0193614 -0.00012937 -1.93151e-05
0.0207431 -0.000155269 -3.20653e-05
0.0220994 -0.000189025 -5.06396e-05
0.0234224 -0.000230481 -7.71766e-05
0.0247011 -0.000277681 -0.000114504
0.0259196 -0.000324684 -0.000166418
0.0275771 -0.00035956 -0.000237618
0.0285826 -0.000320475 -0.000339526
0.0290224 -0.000511495 -0.000400506
0.0299832 -0.000660826 -0.000418691
0.0309018 -0.000781008 -0.000408694
0.0317988 -0.000874387 -0.0003837
0.0326532 -0.000948979 -0.000353165
0.0334533 -0.00101338 -0.000324304
0.034183 -0.00107567 -0.00030321
0.0348175 -0.00114284 -0.000295656
0.0356689 -0.00121946 -0.000307492
0.0359834 -0.00129971 -0.000349138
0.035522 -0.00140063 -0.000372724
0.034741 -0.00145637 -0.000372075
0.0332044 -0.00146625 -0.000354509
0.0307861 -0.0014238 -0.000325702
0.0273553 -0.00132166 -0.00028827
0.0228396 -0.00115249 -0.000242783
0.0172615 -0.000911425 -0.000188527
0.0107723 -0.000598552 -0.000123982
0.00366396 -0.000220646 -4.72825e-05
0.000774162 7.12922e-07 1.08231e-07
0.00232284 -1.16266e-06 3.09588e-07
0.00387206 -5.5272e-06 5.45423e-07
0.00542178 -1.20153e-05 8.25018e-07
0.00697223 -2.00078e-05 1.13011e-06
0.00852357 -2.87327e-05 1.41582e-06
0.0100759 -3.755e-05 1.60684e-06
0.011629 -4.62907e-05 1.58831e-06
0.0131826 -5.54327e-05 1.19138e-06
0.0147376 -6.60395e-05 1.73124e-07
0.0162899 -7.95535e-05 -1.8399e-06
0.0178329 -9.75356e-05 -5.39208e-06
0.0193636 -0.000122267 -1.10582e-05
0.0208792 -0.000156005 -1.97965e-05
0.0223756 -0.000201194 -3.28712e-05
0.0238472 -0.00026056 -5.19767e-05
0.0252862 -0.000337105 -7.93761e-05
0.0266808 -0.000433744 -0.000118095
0.0280132 -0.000551844 -0.00017224
0.0298179 -0.000687838 -0.000246941
0.0308899 -0.000795294 -0.000354603
0.0314027 -0.00101791 -0.000417104
0.0325421 -0.00114639 -0.000435187
0.0336159 -0.00122711 -0.00042363
0.0346557 -0.00127798 -0.000396458
0.0356427 -0.00131379 -0.000363556
0.0365673 -0.00134681 -0.00033233
0.0374146 -0.00138849 -0.000308965
0.0381587 -0.00145046 -0.000299327
0.0390987 -0.00154353 -0.000309422
0.0394872 -0.00168099 -0.000350046
0.0391041 -0.00176512 -0.000371585
0.0383748 -0.0017953 -0.000369362
0.0368214 -0.00177619 -0.000350328
0.0342891 -0.00170388 -0.000320401
0.0306095 -0.00156962 -0.000282369
0.0256741 -0.00136316 -0.000236926
0.0194833 -0.00107645 -0.000183445
0.0121969 -0.000707146 -0.00012043
0.00415557 -0.00026119 -4.5931e-05
0.000830995 6.82961e-06 9.57498e-08
0.00249338 1.62138e-05 2.68002e-07
0.00415637 2.12032e-05 4.76296e-07
0.00581989 2.15544e-05 7.32717e-07
0.00748422 1.76919e-05 1.02082e-06
0.00914958 1.04561e-05 1.29758e-06
0.0108161 6.78776e-07 1.49034e-06
0.0124837 -1.12236e-05 1.48836e-06
0.0141521 -2.5451e-05 1.12924e-06
0.0158224 -4.27992e-05 1.79949e-07
0.0174906 -6.45292e-05 -1.89914e-06
0.0191494 -9.21972e-05 -5.44583e-06
0.0207963 -0.000128433 -1.11143e-05
0.0224286 -0.000176234 -1.98772e-05
0.0240425 -0.000239338 -3.30243e-05
0.025633 -0.000322611 -5.22992e-05
0.027193 -0.000432633 -8.0055e-05
0.0287115 -0.000578625 -0.000119478
0.0301711 -0.000773416 -0.00017495
0.0321014 -0.00103162 -0.000251999
0.0332759 -0.00137235 -0.000363911
0.033936 -0.00155319 -0.000426554
0.035258 -0.001623 -0.000444311
0.0364763 -0.00164553 -0.000431415
0.0376477 -0.00164615 -0.000402545
0.0387599 -0.00164067 -0.000367855
0.0398066 -0.00164168 -0.000334803
0.0407739 -0.00166238 -0.000309546
0.0416362 -0.00171873 -0.000297945
0.0426549 -0.00182946 -0.000306078
0.0431486 -0.00204126 -0.000344958
0.0428976 -0.00208671 -0.0003641
0.0422363 -0.00208551 -0.000360546
0.0406855 -0.00203842 -0.000340618
0.0380579 -0.00194089 -0.000310348
0.0341409 -0.00178097 -0.000272598
0.0287785 -0.00154458 -0.000228111
0.0219379 -0.00122 -0.000176284
0.0137815 -0.000802253 -0.000115622
0.00470443 -0.000296689 -4.41146e-05
0.000890088 1.34467e-05 8.57733e-08
0.0026707 3.5035e-05 2.33202e-07
0.00445195 5.02483e-05 4.16182e-07
0.00623374 5.81778e-05 6.49386e-07
0.00801636 5.89984e-05 9.18668e-07
0.0098001 5.36027e-05 1.18383e-06
0.0115851 4.30499e-05 1.37621e-06
0.0133714 2.80827e-05 1.39106e-06
0.0151588 8.88006e-06 1.07522e-06
0.0169486 -1.49763e-05 2.09679e-07
0.0187366 -4.44496e-05 -1.90296e-06
0.0205154 -8.09574e-05 -5.37351e-06
0.0222823 -0.000127318 -1.09297e-05
0.0240352 -0.00018704 -1.95384e-05
0.0257707 -0.000264833 -3.24865e-05
0.0274848 -0.000367227 -5.15273e-05
0.0291717 -0.000503735 -7.90517e-05
0.0308232 -0.000689166 -0.000118341
0.0324262 -0.000948361 -0.000173984
0.0344253 -0.00131824 -0.000251859