# vtk DataFile Version 2.0
Presion
ASCII

DATASET STRUCTURED_GRID
DIMENSIONS   40   40   30

POINTS   48000   double
0.0125   0.0125   0.0166667
0.0375   0.0125   0.0166667
0.0625   0.0125   0.0166667
0.0875   0.0125   0.0166667
0.1125   0.0125   0.0166667
0.1375   0.0125   0.0166667
0.1625   0.0125   0.0166667
0.1875   0.0125   0.0166667
0.2125   0.0125   0.0166667
0.2375   0.0125   0.0166667
0.2625   0.0125   0.0166667
0.2875   0.0125   0.0166667
0.3125   0.0125   0.0166667
0.3375   0.0125   0.0166667
0.3625   0.0125   0.0166667
0.3875   0.0125   0.0166667
0.4125   0.0125   0.0166667
0.4375   0.0125   0.0166667
0.4625   0.0125   0.0166667
0.4875   0.0125   0.0166667
0.5125   0.0125   0.0166667
0.5375   0.0125   0.0166667
0.5625   0.0125   0.0166667
0.5875   0.0125   0.0166667
0.6125   0.0125   0.0166667
0.6375   0.0125   0.0166667
0.6625   0.0125   0.0166667
0.6875   0.0125   0.0166667
0.7125   0.0125   0.0166667
0.7375   0.0125   0.0166667
0.7625   0.0125   0.0166667
0.7875   0.0125   0.0166667
0.8125   0.0125   0.0166667
0.8375   0.0125   0.0166667
0.8625   0.0125   0.0166667
0.8875   0.0125   0.0166667
0.9125   0.0125   0.0166667
0.9375   0.0125   0.0166667
0.9625   0.0125   0.0166667
0.9875   0.0125   0.0166667
0.0125   0.0375   0.0166667
0.0375   0.0375   0.0166667
0.0625   0.0375   0.0166667
0.0875   0.0375   0.0166667
0.1125   0.0375   0.0166667
0.1375   0.0375   0.0166667
0.1625   0.0375   0.0166667
0.1875   0.0375   0.0166667
0.2125   0.0375   0.0166667
0.2375   0.0375   0.0166667
0.2625   0.0375   0.0166667
0.2875   0.0375   0.0166667
0.3125   0.0375   0.0166667
0.3375   0.0375   0.0166667
0.3625   0.0375   0.0166667
0.3875   0.0375   0.0166667
0.4125   0.0375   0.0166667
0.4375   0.0375   0.0166667
0.4625   0.0375   0.0166667
0.4875   0.0375   0.0166667
0.5125   0.0375   0.0166667
0.5375   0.0375   0.0166667
0.5625   0.0375   0.0166667
0.5875   0.0375   0.0166667
0.6125   0.0375   0.0166667
0.6375   0.0375   0.0166667
0.6625   0.0375   0.0166667
0.6875   0.0375   0.0166667
0.7125   0.0375   0.0166667
0.7375   0.0375   0.0166667
0.7625   0.0375   0.0166667
0.7875   0.0375   0.0166667
0.8125   0.0375   0.0166667
0.8375   0.0375   0.0166667
0.8625   0.0375   0.0166667
0.8875   0.0375   0.0166667
0.9125   0.0375   0.0166667
0.9375   0.0375   0.0166667
0.9625   0.0375   0.0166667
0.9875   0.0375   0.0166667
0.0125   0.0625   0.0166667
0.0375   0.0625   0.0166667
0.0625   0.0625   0.0166667
0.0875   0.0625   0.0166667
0.1125   0.0625   0.0166667
0.1375   0.0625   0.0166667
0.1625   0.0625   0.0166667
0.1875   0.0625   0.0166667
0.2125   0.0625   0.0166667
0.2375   0.0625   0.0166667
0.2625   0.0625   0.0166667
0.2875   0.0625   0.0166667
0.3125   0.0625   0.0166667
0.3375   0.0625   0.0166667
0.3625   0.0625   0.0166667
0.3875   0.0625   0.0166667
0.4125   0.0625   0.0166667
0.4375   0.0625   0.0166667
0.4625   0.0625   0.0166667
0.4875   0.0625   0.0166667
0.5125   0.0625   0.0166667
0.5375   0.0625   0.0166667
0.5625   0.0625   0.0166667
0.5875   0.0625   0.0166667
0.6125   0.0625   0.0166667
0.6375   0.0625   0.0166667
0.6625   0.0625   0.0166667
0.6875   0.0625   0.0166667
0.7125   0.0625   0.0166667
0.7375   0.0625   0.0166667
0.7625   0.0625   0.0166667
0.7875   0.0625   0.0166667
0.8125   0.0625   0.0166667
0.8375   0.0625   0.0166667
0.8625   0.0625   0.0166667
0.8875   0.0625   0.0166667
0.9125   0.0625   0.0166667
0.9375   0.0625   0.0166667
0.9625   0.0625   0.0166667
0.9875   0.0625   0.0166667
0.0125   0.0875   0.0166667
0.0375   0.0875   0.0166667
0.0625   0.0875   0.0166667
0.0875   0.0875   0.0166667
0.1125   0.0875   0.0166667
0.1375   0.0875   0.0166667
0.1625   0.0875   0.0166667
0.1875   0.0875   0.0166667
0.2125   0.0875   0.0166667
0.2375   0.0875   0.0166667
0.2625   0.0875   0.0166667
0.2875   0.0875   0.0166667
0.3125   0.0875   0.0166667
0.3375   0.0875   0.0166667
0.3625   0.0875   0.0166667
0.3875   0.0875   0.0166667
0.4125   0.0875   0.0166667
0.4375   0.0875   0.0166667
0.4625   0.0875   0.0166667
0.4875   0.0875   0.0166667
0.5125   0.0875   0.0166667
0.5375   0.0875   0.0166667
0.5625   0.0875   0.0166667
0.5875   0.0875   0.0166667
0.6125   0.0875   0.0166667
0.6375   0.0875   0.0166667
0.6625   0.0875   0.0166667
0.6875   0.0875   0.0166667
0.7125   0.0875   0.0166667
0.7375   0.0875   0.0166667
0.7625   0.0875   0.0166667
0.7875   0.0875   0.0166667
0.8125   0.0875   0.0166667
0.8375   0.0875   0.0166667
0.8625   0.0875   0.0166667
0.8875   0.0875   0.0166667
0.9125   0.0875   0.0166667
0.9375   0.0875   0.0166667
0.9625   0.0875   0.0166667
0.9875   0.0875   0.0166667
0.0125   0.1125   0.0166667
0.0375   0.1125   0.0166667
0.0625   0.1125   0.0166667
0.0875   0.1125   0.0166667
0.1125   0.1125   0.0166667
0.1375   0.1125   0.0166667
0.1625   0.1125   0.0166667
0.1875   0.1125   0.0166667
0.2125   0.1125   0.0166667
0.2375   0.1125   0.0166667
0.2625   0.1125   0.0166667
0.2875   0.1125   0.0166667
0.3125   0.1125   0.0166667
0.3375   0.1125   0.0166667
0.3625   0.1125   0.0166667
0.3875   0.1125   0.0166667
0.4125   0.1125   0.0166667
0.4375   0.1125   0.0166667
0.4625   0.1125   0.0166667
0.4875   0.1125   0.0166667
0.5125   0.1125   0.0166667
0.5375   0.1125   0.0166667
0.5625   0.1125   0.0166667
0.5875   0.1125   0.0166667
0.6125   0.1125   0.0166667
0.6375   0.1125   0.0166667
0.6625   0.1125   0.0166667
0.6875   0.1125   0.0166667
0.7125   0.1125   0.0166667
0.7375   0.1125   0.0166667
0.7625   0.1125   0.0166667
0.7875   0.1125   0.0166667
0.8125   0.1125   0.0166667
0.8375   0.1125   0.0166667
0.8625   0.1125   0.0166667
0.8875   0.1125   0.0166667
0.9125   0.1125   0.0166667
0.9375   0.1125   0.0166667
0.9625   0.1125   0.0166667
0.9875   0.1125   0.0166667
0.0125   0.1375   0.0166667
0.0375   0.1375   0.0166667
0.0625   0.1375   0.0166667
0.0875   0.1375   0.0166667
0.1125   0.1375   0.0166667
0.1375   0.1375   0.0166667
0.1625   0.1375   0.0166667
0.1875   0.1375   0.0166667
0.2125   0.1375   0.0166667
0.2375   0.1375   0.0166667
0.2625   0.1375   0.0166667
0.2875   0.1375   0.0166667
0.3125   0.1375   0.0166667
0.3375   0.1375   0.0166667
0.3625   0.1375   0.0166667
0.3875   0.1375   0.0166667
0.4125   0.1375   0.0166667
0.4375   0.1375   0.0166667
0.4625   0.1375   0.0166667
0.4875   0.1375   0.0166667
0.5125   0.1375   0.0166667
0.5375   0.1375   0.0166667
0.5625   0.1375   0.0166667
0.5875   0.1375   0.0166667
0.6125   0.1375   0.0166667
0.6375   0.1375   0.0166667
0.6625   0.1375   0.0166667
0.6875   0.1375   0.0166667
0.7125   0.1375   0.0166667
0.7375   0.1375   0.0166667
0.7625   0.1375   0.0166667
0.7875   0.1375   0.0166667
0.8125   0.1375   0.0166667
0.8375   0.1375   0.0166667
0.8625   0.1375   0.0166667
0.8875   0.1375   0.0166667
0.9125   0.1375   0.0166667
0.9375   0.1375   0.0166667
0.9625   0.1375   0.0166667
0.9875   0.1375   0.0166667
0.0125   0.1625   0.0166667
0.0375   0.1625   0.0166667
0.0625   0.1625   0.0166667
0.0875   0.1625   0.0166667
0.1125   0.1625   0.0166667
0.1375   0.1625   0.0166667
0.1625   0.1625   0.0166667
0.1875   0.1625   0.0166667
0.2125   0.1625   0.0166667
0.2375   0.1625   0.0166667
0.2625   0.1625   0.0166667
0.2875   0.1625   0.0166667
0.3125   0.1625   0.0166667
0.3375   0.1625   0.0166667
0.3625   0.1625   0.0166667
0.3875   0.1625   0.0166667
0.4125   0.1625   0.0166667
0.4375   0.1625   0.0166667
0.4625   0.1625   0.0166667
0.4875   0.1625   0.0166667
0.5125   0.1625   0.0166667
0.5375   0.1625   0.0166667
0.5625   0.1625   0.0166667
0.5875   0.1625   0.0166667
0.6125   0.1625   0.0166667
0.6375   0.1625   0.0166667
0.6625   0.1625   0.0166667
0.6875   0.1625   0.0166667
0.7125   0.1625   0.0166667
0.7375   0.1625   0.0166667
0.7625   0.1625   0.0166667
0.7875   0.1625   0.0166667
0.8125   0.1625   0.0166667
0.8375   0.1625   0.0166667
0.8625   0.1625   0.0166667
0.8875   0.1625   0.0166667
0.9125   0.1625   0.0166667
0.9375   0.1625   0.0166667
0.9625   0.1625   0.0166667
0.9875   0.1625   0.0166667
0.0125   0.1875   0.0166667
0.0375   0.1875   0.0166667
0.0625   0.1875   0.0166667
0.0875   0.1875   0.0166667
0.1125   0.1875   0.0166667
0.1375   0.1875   0.0166667
0.1625   0.1875   0.0166667
0.1875   0.1875   0.0166667
0.2125   0.1875   0.0166667
0.2375   0.1875   0.0166667
0.2625   0.1875   0.0166667
0.2875   0.1875   0.0166667
0.3125   0.1875   0.0166667
0.3375   0.1875   0.0166667
0.3625   0.1875   0.0166667
0.3875   0.1875   0.0166667
0.4125   0.1875   0.0166667
0.4375   0.1875   0.0166667
0.4625   0.1875   0.0166667
0.4875   0.1875   0.0166667
0.5125   0.1875   0.0166667
0.5375   0.1875   0.0166667
0.5625   0.1875   0.0166667
0.5875   0.1875   0.0166667
0.6125   0.1875   0.0166667
0.6375   0.1875   0.0166667
0.6625   0.1875   0.0166667
0.6875   0.1875   0.0166667
0.7125   0.1875   0.0166667
0.7375   0.1875   0.0166667
0.7625   0.1875   0.0166667
0.7875   0.1875   0.0166667
0.8125   0.1875   0.0166667
0.8375   0.1875   0.0166667
0.8625   0.1875   0.0166667
0.8875   0.1875   0.0166667
0.9125   0.1875   0.0166667
0.9375   0.1875   0.0166667
0.9625   0.1875   0.0166667
0.9875   0.1875   0.0166667
0.0125   0.2125   0.0166667
0.0375   0.2125   0.0166667
0.0625   0.2125   0.0166667
0.0875   0.2125   0.0166667
0.1125   0.2125   0.0166667
0.1375   0.2125   0.0166667
0.1625   0.2125   0.0166667
0.1875   0.2125   0.0166667
0.2125   0.2125   0.0166667
0.2375   0.2125   0.0166667
0.2625   0.2125   0.0166667
0.2875   0.2125   0.0166667
0.3125   0.2125   0.0166667
0.3375   0.2125   0.0166667
0.3625   0.2125   0.0166667
0.3875   0.2125   0.0166667
0.4125   0.2125   0.0166667
0.4375   0.2125   0.0166667
0.4625   0.2125   0.0166667
0.4875   0.2125   0.0166667
0.5125   0.2125   0.0166667
0.5375   0.2125   0.0166667
0.5625   0.2125   0.0166667
0.5875   0.2125   0.0166667
0.6125   0.2125   0.0166667
0.6375   0.2125   0.0166667
0.6625   0.2125   0.0166667
0.6875   0.2125   0.0166667
0.7125   0.2125   0.0166667
0.7375   0.2125   0.0166667
0.7625   0.2125   0.0166667
0.7875   0.2125   0.0166667
[...]
POINT_DATA   48000
SCALARS Presion double
LOOKUP_TABLE   Presion

0 0 0 0 0 0 0 0 0 0 0 0 0 0 0 0 0 0 0 0 0 0 0 0 0 0 0 0 0 0 0 -0.000558616 -0.000560959 -0.000233485 -0.000498761 -0.00100523 -0.000360174 -0.000332848 -9.30484e-05 0 0 0 0 0 0 0 0 0 0 0 0 0 0 0 0 0 0 0 0 0 0 0 0 0 0 0 0 0 0 0 0 -0.00056304 -0.000570861 -0.000308636 -0.000498816 -0.00122664 -0.000364558 -0.000344439 -0.000128499 0 0 0 0 0 0 0 0 0 0 0 0 0 0 0 0 0 0 0 0 0 0 0 0 0 0 0 0 0 0 0 0 -0.000565614 -0.000588051 -0.000370116 -0.000498901 -0.00148472 -0.000367182 -0.000363871 -0.000160804 0 0 0 0 0 0 0 0 0 0 0 0 0 0 0 0 0 0 0 0 0 0 0 0 0 0 0 0 0 0 0 0 -0.000567056 -0.000616839 -0.00041814 -0.000499076 -0.00171839 -0.000368686 -0.000394825 -0.000188687 0 0 0 0 0 0 0 0 0 0 0 0 0 0 0 0 0 0 0 0 0 0 0 0 0 0 0 0 0 0 0 0 -0.000567833 -0.00066351 -0.000454053 -0.000499451 -0.0017171 -0.000369513 -0.000441631 -0.000211453 0 0 0 0 0 0 0 0 0 0 0 0 0 0 0 0 0 0 0 0 0 0 0 0 0 0 0 0 0 0 0 0 -0.000568235 -0.00073714 -0.000479814 -0.000500235 -0.00095914 -0.00036995 -0.000508835 -0.00022905 0 0 0 0 0 0 0 0 0 0 0 0 0 0 0 0 0 0 0 0 0 0 0 0 0 0 0 0 0 0 0 0 -0.000568438 -0.000850997 -0.000497557 -0.000501822 -3.53052e-05 -0.000370173 -0.000600569 -0.000241947 0 0 0 0 0 0 0 0 0 0 0 0 0 0 0 0 0 0 0 0 0 0 0 0 0 0 0 0 0 0 0 0 -0.000568539 -0.00102516 -0.000509302 -0.000504907 -0.000104508 -0.000370287 -0.000719784 -0.000250927 0 0 0 0 0 0 0 0 0 0 0 0 0 0 0 0 0 0 0 0 0 0 0 0 0 0 0 0 0 0 0 0 -0.000568595 -0.00129147 -0.000516774 -0.000510656 -0.00016965 -0.000370352 -0.000866952 -0.000256877 0 0 0 0 0 0 0 0 0 0 0 0 0 0 0 0 0 0 0 0 0 0 0 0 0 0 0 0 0 0 0 0 -0.000568642 -0.0017022 -0.000521344 -0.000520928 -0.000228157 -0.000370412 -0.00103659 -0.000260636 0 0 0 0 0 0 0 0 0 0 0 0 0 0 0 0 0 0 0 0 0 0 0 0 0 0 0 0 0 0 0 0 -0.000568716 -0.00234259 -0.000524032 -0.000538526 -0.000278178 -0.000370508 -0.0012071 -0.000262902 0 0 0 0 0 0 0 0 0 0 0 0 0 0 0 0 0 0 0 0 0 0 0 0 0 0 0 0 0 0 0 0 -0.000568866 -0.0033301 -0.000525551 -0.000567464 -0.000318875 -0.000370706 -0.00131454 -0.000264207 0 0 0 0 0 0 0 0 0 0 0 0 0 0 0 0 0 0 0 0 0 0 0 0 0 0 0 0 0 0 0 0 -0.000569191 -0.00466519 -0.000526377 -0.000613246 -0.000350414 -0.000371135 -0.00120052 -0.000264927 0 0 0 0 0 0 0 0 0 0 0 0 0 0 0 0 0 0 0 0 0 0 0 0 0 0 0 0 0 0 0 0 -0.000569879 -0.00501941 -0.00052681 -0.000683202 -0.000373725 -0.000372033 -0.00058302 -0.000265308 0 0 0 0 0 0 0 0 0 0 0 0 0 0 0 0 0 0 0 0 0 0 0 0 0 0 0 0 0 0 0 0 -0.000571286 -5.32201e-05 -0.00052703 -0.000787012 -0.000390181 -0.000373845 -2.38846e-05 -0.000265503 0 0 0 0 0 0 0 0 0 0 0 0 0 0 0 0 0 0 0 0 0 0 0 0 0 0 0 0 0 0 0 0 -0.000574052 -0.00015559 -0.000527141 -0.000937583 -0.000401288 -0.000377347 -7.14058e-05 -0.000265603 0 0 0 0 0 0 0 0 0 0 0 0 0 0 0 0 0 0 0 0 0 0 0 0 0 0 0 0 0 0 0 0 -0.000579288 -0.000247894 -0.000527204 -0.00115217 -0.000408462 -0.000383813 -0.000117659 -0.000265661 0 0 0 0 0 0 0 0 0 0 0 0 0 0 0 0 0 0 0 0 0 0 0 0 0 0 0 0 0 0 0 0 -0.000588825 -0.000326546 -0.000527259 -0.00145239 -0.000412901 -0.000395202 -0.00016094 -0.000265714 0 0 0 0 0 0 0 0 0 0 0 0 0 0 0 0 0 0 0 0 0 0 0 0 0 0 0 0 0 0 0 0 -0.000605563 -0.000390283 -0.000527343 -0.00185669 -0.000415532 -0.000414317 -0.000199526 -0.000265803 0 0 0 0 0 0 0 0 0 0 0 0 0 0 0 0 0 0 0 0 0 0 0 0 0 0 0 0 0 0 0 0 -0.000633936 -0.000439623 -0.000527516 -0.0023401 -0.000417027 -0.000444862 -0.000232183 -0.000265991 0 0 0 0 0 0 0 0 0 0 0 0 0 0 0 0 0 0 0 0 0 0 0 0 0 0 0 0 0 0 0 0 -0.000680558 -0.00047622 -0.000527885 -0.00267057 -0.000417843 -0.000491349 -0.000258404 -0.000266401 0 0 0 0 0 0 0 0 0 0 0 0 0 0 0 0 0 0 0 0 0 0 0 0 0 0 0 0 0 0 0 0 -0.000755255 -0.000502284 -0.000528655 -0.00188904 -0.000418271 -0.000558817 -0.000278397 -0.00026727 0 0 0 0 0 0 0 0 0 0 0 0 0 0 0 0 0 0 0 0 0 0 0 0 0 0 0 0 0 0 0 0 -0.000872899 -0.000520126 -0.000530213 -4.60063e-05 -0.000418487 -0.000652447 -0.000292894 -0.000269041 0 0 0 0 0 0 0 0 0 0 0 0 0 0 0 0 0 0 0 0 0 0 0 0 0 0 0 0 0 0 0 0 -0.00105708 -0.000531874 -0.000533238 -0.000135129 -0.000418597 -0.000777076 -0.000302907 -0.000272497 0 0 0 0 0 0 0 0 0 0 0 0 0 0 0 0 0 0 0 0 0 0 0 0 0 0 0 0 0 0 0 0 -0.00134776 -0.000539316 -0.000538884 -0.000216825 -0.00041866 -0.000936166 -0.000309503 -0.000278935 0 0 0 0 0 0 0 0 0 0 0 0 0 0 0 0 0 0 0 0 0 0 0 0 0 0 0 0 0 0 0 0 -0.0018178 -0.00054385 -0.000549004 -0.000287853 -0.000418715 -0.00112842 -0.000313654 -0.000290357 0 0 0 0 0 0 0 0 0 0 0 0 0 0 0 0 0 0 0 0 0 0 0 0 0 0 0 0 0 0 0 0 -0.00260824 -0.000546508 -0.000566435 -0.000346597 -0.000418804 -0.00133668 -0.00031615 -0.000309617 0 0 0 0 0 0 0 0 0 0 0 0 0 0 0 0 0 0 0 0 0 0 0 0 0 0 0 0 0 0 0 0 -0.00399567 -0.000548007 -0.000595336 -0.000392932 -0.000418988 -0.00149646 -0.000317587 -0.000340417 0 0 0 0 0 0 0 0 0 0 0 0 0 0 0 0 0 0 0 0 0 0 0 0 0 0 0 0 0 0 0 0 -0.00642241 -0.00054882 -0.000641604 -0.000427863 -0.000419385 -0.00142343 -0.000318379 -0.00038704 0 0 0 0 0 0 0 0 0 0 0 0 0 0 0 0 0 0 0 0 0 0 0 0 0 0 0 0 0 0 0 0 -0.00924265 -0.000549245 -0.000713441 -0.000453076 -0.00042022 -0.000734919 -0.000318798 -0.000453766 0 0 0 0 0 0 0 0 0 0 0 0 0 0 0 0 0 0 0 0 0 0 0 0 0 0 0 0 0 0 0 0 -5.58884e-05 -0.000549461 -0.000822312 -0.00047052 -0.000421913 -2.9466e-05 -0.000319013 -0.000544001 0 0 0 0 0 0 0 0 0 0 0 0 0 0 0 0 0 0 0 0 0 0 0 0 0 0 0 0 0 0 0 0 -0.000163187 -0.000549569 -0.000984596 -0.0004821 -0.0004252 -8.76348e-05 -0.000319122 -0.000659223 0 0 0 0 0 0 0 0 0 0 0 0 0 0 0 0 0 0 0 0 0 0 0 0 0 0 0 0 0 0 0 0 -0.000259421 -0.000549631 -0.0012243 -0.000489478 -0.000431308 -0.000143276 -0.000319186 -0.00079747 0 0 0 0 0 0 0 0 0 0 0 0 0 0 0 0 0 0 0 0 0 0 0 0 0 0 0 0 0 0 0 0 -0.000340857 -0.000549683 -0.00157643 -0.000493991 -0.000442147 -0.000194257 -0.000319244 -0.000949983 0 0 0 0 0 0 0 0 0 0 0 0 0 0 0 0 0 0 0 0 0 0 0 0 0 0 0 0 0 0 0 0 -0.000406355 -0.000549765 -0.00208616 -0.000496643 -0.000460507 -0.000238756 -0.000319339 -0.00109228 0 0 0 0 0 0 0 0 0 0 0 0 0 0 0 0 0 0 0 0 0 0 0 0 0 0 0 0 0 0 0 0 -0.000456678 -0.00054993 -0.00277825 -0.000498139 -0.000490184 -0.000275688 -0.000319538 -0.00116292 0 0 0 0 0 0 0 0 0 0 0 0 0 0 0 0 0 0 0 0 0 0 0 0 0 0 0 0 0 0 0 0 -0.000493737 -0.000550284 -0.00347275 -0.00049895 -0.000535999 -0.000304838 -0.000319969 -0.00102699 0 0 0 0 0 0 0 0 0 0 0 0 0 0 0 0 0 0 0 0 0 0 0 0 0 0 0 0 0 0 0 0 -0.00051995 -0.000551026 -0.00293934 -0.000499374 -0.000603705 -0.000326741 -0.000320877 -0.000475423 0 0 0 0 0 0 0 0 0 0 0 0 0 0 0 0 0 0 0 0 0 0 0 0 0 0 0 0 0 0 0 0 -0.00053778 -0.000552528 -4.98727e-05 -0.000499588 -0.000699833 -0.000342431 -0.000322713 -1.85837e-05 0 0 0 0 0 0 0 0 0 0 0 0 0 0 0 0 0 0 0 0 0 0 0 0 0 0 0 0 0 0 0 0 -0.00054945 -0.000555457 -0.000146095 -0.000499696 -0.000831518 -0.000353162 -0.000326269 -5.58749e-05 0 0 0 0 0 0 0 0 0 0 0 0 0 0 0 0 0 0 0 0 0 0 0 0 0 0 0 0 0 0 0 0 -0.0005661 -0.000663506 -0.000454066 -0.000500431 -0.00171713 -0.000369515 -0.000441626 -0.000211004 0 0 0 0 0 0 0 0 0 0 0 0 0 0 0 0 0 0 0 0 0 0 0 0 0 0 0 0 0 0 0 0 -0.000566509 -0.000737138 -0.000479826 -0.000501201 -0.000959145 -0.000369952 -0.000508829 -0.000228527 0 0 0 0 0 0 0 0 0 0 0 0 0 0 0 0 0 0 0 0 0 0 0 0 0 0 0 0 0 0 0 0 -0.000566715 -0.000850996 -0.000497569 -0.000502762 -3.52365e-05 -0.000370175 -0.000600563 -0.000241353 0 0 0 0 0 0 0 0 0 0 0 0 0 0 0 0 0 0 0 0 0 0 0 0 0 0 0 0 0 0 0 0 -0.000566819 -0.00102516 -0.000509313 -0.000505804 -0.000104303 -0.000370289 -0.000719778 -0.000250271 0 0 0 0 0 0 0 0 0 0 0 0 0 0 0 0 0 0 0 0 0 0 0 0 0 0 0 0 0 0 0 0 -0.000566876 -0.00129147 -0.000516784 -0.000511488 -0.000169319 -0.000370354 -0.000866947 -0.00025617 0 0 0 0 0 0 0 0 0 0 0 0 0 0 0 0 0 0 0 0 0 0 0 0 0 0 0 0 0 0 0 0 -0.000566925 -0.0017022 -0.000521354 -0.000521666 -0.000227725 -0.000370414 -0.00103659 -0.000259889 0 0 0 0 0 0 0 0 0 0 0 0 0 0 0 0 0 0 0 0 0 0 0 0 0 0 0 0 0 0 0 0 -0.000567 -0.00234259 -0.000524042 -0.00053914 -0.000277681 -0.000370509 -0.0012071 -0.000262127 0 0 0 0 0 0 0 0 0 0 0 0 0 0 0 0 0 0 0 0 0 0 0 0 0 0 0 0 0 0 0 0 -0.000567154 -0.0033301 -0.000525561 -0.00056793 -0.000318353 -0.000370708 -0.00131453 -0.000263414 0 0 0 0 0 0 0 0 0 0 0 0 0 0 0 0 0 0 0 0 0 0 0 0 0 0 0 0 0 0 0 0 -0.000567486 -0.00466519 -0.000526387 -0.000613553 -0.000349901 -0.000371137 -0.00120051 -0.000264122 0 0 0 0 0 0 0 0 0 0 0 0 0 0 0 0 0 0 0 0 0 0 0 0 0 0 0 0 0 0 0 0 -0.000568187 -0.00501941 -0.000526819 -0.00068336 -0.000373246 -0.000372035 -0.00058302 -0.000264496 0 0 0 0 0 0 0 0 0 0 0 0 0 0 0 0 0 0 0 0 0 0 0 0 0 0 0 0 0 0 0 0 -0.000569617 -5.32192e-05 -0.000527039 -0.000787054 -0.000389747 -0.000373848 -2.38846e-05 -0.000264687 0 0 0 0 0 0 0 0 0 0 0 0 0 0 0 0 0 0 0 0 0 0 0 0 0 0 0 0 0 0 0 0 -0.000572422 -0.000155587 -0.00052715 -0.000937553 -0.000400902 -0.00037735 -7.14061e-05 -0.000264784 0 0 0 0 0 0 0 0 0 0 0 0 0 0 0 0 0 0 0 0 0 0 0 0 0 0 0 0 0 0 0 0 -0.00057772 -0.00024789 -0.000527213 -0.00115212 -0.000408119 -0.000383817 -0.00011766 -0.000264841 0 0 0 0 0 0 0 0 0 0 0 0 0 0 0 0 0 0 0 0 0 0 0 0 0 0 0 0 0 0 0 0 -0.00058735 -0.000326542 -0.000527268 -0.00145235 -0.000412593 -0.000395207 -0.00016094 -0.000264893 0 0 0 0 0 0 0 0 0 0 0 0 0 0 0 0 0 0 0 0 0 0 0 0 0 0 0 0 0 0 0 0 -0.000604215 -0.000390278 -0.000527353 -0.00185666 -0.00041525 -0.000414323 -0.000199526 -0.000264979 0 0 0 0 0 0 0 0 0 0 0 0 0 0 0 0 0 0 0 0 0 0 0 0 0 0 0 0 0 0 0 0 -0.000632751 -0.000439617 -0.000527525 -0.00234009 -0.000416763 -0.000444871 -0.000232183 -0.000265162 0 0 0 0 0 0 0 0 0 0 0 0 0 0 0 0 0 0 0 0 0 0 0 0 0 0 0 0 0 0 0 0 -0.000679566 -0.000476215 -0.000527894 -0.00267057 -0.00041759 -0.000491359 -0.000258404 -0.000265562 0 0 0 0 0 0 0 0 0 0 0 0 0 0 0 0 0 0 0 0 0 0 0 0 0 0 0 0 0 0 0 0 -0.000754472 -0.000502278 -0.000528664 -0.00188905 -0.000418025 -0.000558828 -0.000278396 -0.000266412 0 0 0 0 0 0 0 0 0 0 0 0 0 0 0 0 0 0 0 0 0 0 0 0 0 0 0 0 0 0 0 0 -0.000872324 -0.000520121 -0.000530221 -4.62673e-05 -0.000418246 -0.000652459 -0.000292892 -0.000268149 0 0 0 0 0 0 0 0 0 0 0 0 0 0 0 0 0 0 0 0 0 0 0 0 0 0 0 0 0 0 0 0 -0.00105669 -0.000531869 -0.000533246 -0.000135888 -0.000418358 -0.000777087 -0.000302904 -0.000271548 0 0 0 0 0 0 0 0 0 0 0 0 0 0 0 0 0 0 0 0 0 0 0 0 0 0 0 0 0 0 0 0 -0.00134752 -0.000539311 -0.000538892 -0.000218013 -0.000418422 -0.000936175 -0.0003095 -0.000277896 0 0 0 0 0 0 0 0 0 0 0 0 0 0 0 0 0 0 0 0 0 0 0 0 0 0 0 0 0 0 0 0 -0.00181766 -0.000543846 -0.00054901 -0.000289371 -0.000418479 -0.00112842 -0.00031365 -0.00028919 0 0 0 0 0 0 0 0 0 0 0 0 0 0 0 0 0 0 0 0 0 0 0 0 0 0 0 0 0 0 0 0 -0.00260817 -0.000546504 -0.00056644 -0.000348333 -0.00041857 -0.00133668 -0.000316146 -0.000308283 0 0 0 0 0 0 0 0 0 0 0 0 0 0 0 0 0 0 0 0 0 0 0 0 0 0 0 0 0 0 0 0 -0.00399564 -0.000548003 -0.000595341 -0.000394784 -0.000418759 -0.00149646 -0.000317583 -0.000338894 0 0 0 0 0 0 0 0 0 0 0 0 0 0 0 0 0 0 0 0 0 0 0 0 0 0 0 0 0 0 0 0 -0.0064224 -0.000548816 -0.000641606 -0.000429749 -0.000419164 -0.00142343 -0.000318375 -0.000385342 0 0 0 0 0 0 0 0 0 0 0 0 0 0 0 0 0 0 0 0 0 0 0 0 0 0 0 0 0 0 0 0 -0.00924265 -0.000549241 -0.000713442 -0.000454941 -0.000420016 -0.000734919 -0.000318794 -0.000451958 0 0 0 0 0 0 0 0 0 0 0 0 0 0 0 0 0 0 0 0 0 0 0 0 0 0 0 0 0 0 0 0 -5.57119e-05 -0.000549456 -0.000822312 -0.000472334 -0.000421737 -2.94659e-05 -0.000319008 -0.000542204 0 0 0 0 0 0 0 0 0 0 0 0 0 0 0 0 0 0 0 0 0 0 0 0 0 0 0 0 0 0 0 0 -0.000162681 -0.000549565 -0.000984595 -0.000483852 -0.000425071 -8.76343e-05 -0.000319118 -0.000657587 0 0 0 0 0 0 0 0 0 0 0 0 0 0 0 0 0 0 0 0 0 0 0 0 0 0 0 0 0 0 0 0 -0.000258645 -0.000549626 -0.0012243 -0.000491172 -0.000431251 -0.000143276 -0.000319181 -0.00079613 0 0 0 0 0 0 0 0 0 0 0 0 0 0 0 0 0 0 0 0 0 0 0 0 0 0 0 0 0 0 0 0 -0.000339884 -0.000549679 -0.00157643 -0.000495637 -0.000442191 -0.000194256 -0.000319239 -0.000949016 0 0 0 0 0 0 0 0 0 0 0 0 0 0 0 0 0 0 0 0 0 0 0 0 0 0 0 0 0 0 0 0 -0.000405258 -0.00054976 -0.00208616 -0.000498252 -0.000460679 -0.000238755 -0.000319335 -0.00109168 0 0 0 0 0 0 0 0 0 0 0 0 0 0 0 0 0 0 0 0 0 0 0 0 0 0 0 0 0 0 0 0 -0.000455516 -0.000549926 -0.00277824 -0.000499723 -0.0004905 -0.000275687 -0.000319534 -0.00116261 0 0 0 0 0 0 0 0 0 0 0 0 0 0 0 0 0 0 0 0 0 0 0 0 0 0 0 0 0 0 0 0 -0.000492554 -0.00055028 -0.00347275 -0.000500518 -0.000536455 -0.000304837 -0.000319965 -0.00102686 0 0 0 0 0 0 0 0 0 0 0 0 0 0 0 0 0 0 0 0 0 0 0 0 0 0 0 0 0 0 0 0 -0.000518775 -0.000551022 -0.00293934 -0.000500931 -0.000604263 -0.00032674 -0.000320872 -0.000475392 0 0 0 0 0 0 0 0 0 0 0 0 0 0 0 0 0 0 0 0 0 0 0 0 0 0 0 0 0 0 0 0 -0.000536627 -0.000552524 -4.98774e-05 -0.00050114 -0.000700428 -0.000342431 -0.000322708 -1.85157e-05 0 0 0 0 0 0 0 0 0 0 0 0 0 0 0 0 0 0 0 0 0 0 0 0 0 0 0 0 0 0 0 0 -0.000548323 -0.000555454 -0.000146108 -0.000501244 -0.000832073 -0.000353162 -0.000326264 -5.56807e-05 0 0 0 0 0 0 0 0 0 0 0 0 0 0 0 0 0 0 0 0 0 0 0 0 0 0 0 0 0 0 0 0 -0.000555699 -0.000560946 -0.000233514 -0.000501303 -0.00100633 -0.000360175 -0.000332839 -9.25576e-05 0 0 0 0 0 0 0 0 0 0 0 0 0 0 0 0 0 0 0 0 0 0 0 0 0 0 0 0 0 0 0 0 -0.000560175 -0.000570849 -0.000308673 -0.000501354 -0.00122739 -0.00036456 -0.000344428 -0.000127848 0 0 0 0 0 0 0 0 0 0 0 0 0 0 0 0 0 0 0 0 0 0 0 0 0 0 0 0 0 0 0 0 -0.000562788 -0.000588041 -0.000370157 -0.000501434 -0.00148513 -0.000367184 -0.000363858 -0.000159993 0 0 0 0 0 0 0 0 0 0 0 0 0 0 0 0 0 0 0 0 0 0 0 0 0 0 0 0 0 0 0 0 -0.000564257 -0.000616831 -0.000418182 -0.000501599 -0.00171857 -0.000368689 -0.000394809 -0.000187707 0 0 0 0 0 0 0 0 0 0 0 0 0 0 0 0 0 0 0 0 0 0 0 0 0 0 0 0 0 0 0 0 -0.000565835 -0.00129147 -0.00051681 -0.000512788 -0.00016911 -0.000370355 -0.000866936 -0.000255071 0 0 0 0 0 0 0 0 0 0 0 0 0 0 0 0 0 0 0 0 0 0 0 0 0 0 0 0 0 0 0 0 -0.000565885 -0.0017022 -0.000521379 -0.000522825 -0.000227453 -0.000370414 -0.00103658 -0.000258732 0 0 0 0 0 0 0 0 0 0 0 0 0 0 0 0 0 0 0 0 0 0 0 0 0 0 0 0 0 0 0 0 -0.000565961 -0.00234259 -0.000524066 -0.000540113 -0.00027737 -0.00037051 -0.0012071 -0.000260928 0 0 0 0 0 0 0 0 0 0 0 0 0 0 0 0 0 0 0 0 0 0 0 0 0 0 0 0 0 0 0 0 -0.000566118 -0.0033301 -0.000525585 -0.000568679 -0.000318029 -0.000370709 -0.00131453 -0.000262187 0 0 0 0 0 0 0 0 0 0 0 0 0 0 0 0 0 0 0 0 0 0 0 0 0 0 0 0 0 0 0 0 -0.000566454 -0.00466519 -0.00052641 -0.000614062 -0.000349584 -0.000371137 -0.00120051 -0.000262877 0 0 0 0 0 0 0 0 0 0 0 0 0 0 0 0 0 0 0 0 0 0 0 0 0 0 0 0 0 0 0 0 -0.000567163 -0.00501941 -0.000526843 -0.000683644 -0.000372951 -0.000372036 -0.00058302 -0.000263241 0 0 0 0 0 0 0 0 0 0 0 0 0 0 0 0 0 0 0 0 0 0 0 0 0 0 0 0 0 0 0 0 -0.000568607 -5.32189e-05 -0.000527062 -0.000787158 -0.000389482 -0.000373849 -2.38848e-05 -0.000263425 0 0 0 0 0 0 0 0 0 0 0 0 0 0 0 0 0 0 0 0 0 0 0 0 0 0 0 0 0 0 0 0 -0.000571438 -0.000155586 -0.000527173 -0.000937546 -0.000400667 -0.000377352 -7.14065e-05 -0.000263519 0 0 0 0 0 0 0 0 0 0 0 0 0 0 0 0 0 0 0 0 0 0 0 0 0 0 0 0 0 0 0 0 -0.000576774 -0.000247889 -0.000527236 -0.00115207 -0.000407912 -0.000383819 -0.00011766 -0.000263573 0 0 0 0 0 0 0 0 0 0 0 0 0 0 0 0 0 0 0 0 0 0 0 0 0 0 0 0 0 0 0 0 -0.000586461 -0.00032654 -0.000527291 -0.00145231 -0.000412408 -0.000395209 -0.000160941 -0.000263623 0 0 0 0 0 0 0 0 0 0 0 0 0 0 0 0 0 0 0 0 0 0 0 0 0 0 0 0 0 0 0 0 -0.000603406 -0.000390276 -0.000527376 -0.00185664 -0.000415082 -0.000414326 -0.000199527 -0.000263705 0 0 0 0 0 0 0 0 0 0 0 0 0 0 0 0 0 0 0 0 0 0 0 0 0 0 0 0 0 0 0 0 -0.000632042 -0.000439615 -0.000527548 -0.00234009 -0.000416606 -0.000444874 -0.000232182 -0.000263881 0 0 0 0 0 0 0 0 0 0 0 0 0 0 0 0 0 0 0 0 0 0 0 0 0 0 0 0 0 0 0 0 -0.000678977 -0.000476213 -0.000527917 -0.00267057 -0.000417441 -0.000491363 -0.000258402 -0.000264266 0 0 0 0 0 0 0 0 0 0 0 0 0 0 0 0 0 0 0 0 0 0 0 0 0 0 0 0 0 0 0 0 -0.000754011 -0.000502277 -0.000528687 -0.00188905 -0.00041788 -0.000558833 -0.000278392 -0.000265088 0 0 0 0 0 0 0 0 0 0 0 0 0 0 0 0 0 0 0 0 0 0 0 0 0 0 0 0 0 0 0 0 -0.000871988 -0.000520119 -0.000530243 -4.66398e-05 -0.000418104 -0.000652464 -0.000292887 -0.000266774 0 0 0 0 0 0 0 0 0 0 0 0 0 0 0 0 0 0 0 0 0 0 0 0 0 0 0 0 0 0 0 0 -0.00105646 -0.000531867 -0.000533267 -0.000136971 -0.000418217 -0.000777091 -0.000302898 -0.000270088 0 0 0 0 0 0 0 0 0 0 0 0 0 0 0 0 0 0 0 0 0 0 0 0 0 0 0 0 0 0 0 0 -0.00134738 -0.000539309 -0.000538911 -0.00021971 -0.000418282 -0.000936179 -0.000309492 -0.000276303 0 0 0 0 0 0 0 0 0 0 0 0 0 0 0 0 0 0 0 0 0 0 0 0 0 0 0 0 0 0 0 0 -0.00181758 -0.000543844 -0.000549028 -0.000291541 -0.00041834 -0.00112843 -0.000313641 -0.000287404 0 0 0 0 0 0 0 0 0 0 0 0 0 0 0 0 0 0 0 0 0 0 0 0 0 0 0 0 0 0 0 0 -0.00260814 -0.000546502 -0.000566455 -0.000350821 -0.000418433 -0.00133668 -0.000316137 -0.000306249 0 0 0 0 0 0 0 0 0 0 0 0 0 0 0 0 0 0 0 0 0 0 0 0 0 0 0 0 0 0 0 0 -0.00399562 -0.000548001 -0.000595352 -0.000397441 -0.000418624 -0.00149647 -0.000317573 -0.000336578 0 0 0 0 0 0 0 0 0 0 0 0 0 0 0 0 0 0 0 0 0 0 0 0 0 0 0 0 0 0 0 0 -0.0064224 -0.000548815 -0.000641614 -0.00043246 -0.000419035 -0.00142343 -0.000318365 -0.000382766 0 0 0 0 0 0 0 0 0 0 0 0 0 0 0 0 0 0 0 0 0 0 0 0 0 0 0 0 0 0 0 0 -0.00924265 -0.00054924 -0.000713446 -0.000457626 -0.000419897 -0.000734919 -0.000318784 -0.000449223 0 0 0 0 0 0 0 0 0 0 0 0 0 0 0 0 0 0 0 0 0 0 0 0 0 0 0 0 0 0 0 0 -5.56101e-05 -0.000549455 -0.000822312 -0.00047495 -0.000421636 -2.94658e-05 -0.000318998 -0.000539489 0 0 0 0 0 0 0 0 0 0 0 0 0 0 0 0 0 0 0 0 0 0 0 0 0 0 0 0 0 0 0 0 -0.00016239 -0.000549564 -0.000984594 -0.000486384 -0.000425 -8.76342e-05 -0.000319107 -0.00065512 0 0 0 0 0 0 0 0 0 0 0 0 0 0 0 0 0 0 0 0 0 0 0 0 0 0 0 0 0 0 0 0 -0.000258198 -0.000549625 -0.0012243 -0.000493624 -0.000431224 -0.000143275 -0.000319171 -0.000794116 0 0 0 0 0 0 0 0 0 0 0 0 0 0 0 0 0 0 0 0 0 0 0 0 0 0 0 0 0 0 0 0 -0.000339324 -0.000549678 -0.00157642 -0.000498022 -0.000442227 -0.000194256 -0.000319229 -0.000947569 0 0 0 0 0 0 0 0 0 0 0 0 0 0 0 0 0 0 0 0 0 0 0 0 0 0 0 0 0 0 0 0 -0.000404627 -0.000549759 -0.00208616 -0.000500586 -0.000460797 -0.000238755 -0.000319324 -0.00109079 0 0 0 0 0 0 0 0 0 0 0 0 0 0 0 0 0 0 0 0 0 0 0 0 0 0 0 0 0 0 0 0 -0.00045485 -0.000549925 -0.00277824 -0.000502022 -0.000490709 -0.000275687 -0.000319523 -0.00116215 0 0 0 0 0 0 0 0 0 0 0 0 0 0 0 0 0 0 0 0 0 0 0 0 0 0 0 0 0 0 0 0 -0.000491878 -0.000550278 -0.00347275 -0.000502794 -0.000536751 -0.000304837 -0.000319954 -0.00102667 0 0 0 0 0 0 0 0 0 0 0 0 0 0 0 0 0 0 0 0 0 0 0 0 0 0 0 0 0 0 0 0 -0.000518104 -0.00055102 -0.00293934 -0.000503193 -0.000604624 -0.00032674 -0.000320861 -0.000475347 0 0 0 0 0 0 0 0 0 0 0 0 0 0 0 0 0 0 0 0 0 0 0 0 0 0 0 0 0 0 0 0 -0.00053597 -0.000552523 -4.98876e-05 -0.000503393 -0.000700813 -0.000342431 -0.000322696 -1.84128e-05 0 0 0 0 0 0 0 0 0 0 0 0 0 0 0 0 0 0 0 0 0 0 0 0 0 0 0 0 0 0 0 0 -0.000547682 -0.000555452 -0.000146138 -0.000503493 -0.000832432 -0.000353162 -0.00032625 -5.53867e-05 0 0 0 0 0 0 0 0 0 0 0 0 0 0 0 0 0 0 0 0 0 0 0 0 0 0 0 0 0 0 0 0 -0.000555073 -0.000560945 -0.000233559 -0.000503549 -0.00100662 -0.000360175 -0.000332824 -9.20976e-05 0 0 0 0 0 0 0 0 0 0 0 0 0 0 0 0 0 0 0 0 0 0 0 0 0 0 0 0 0 0 0 0 -0.000559561 -0.000570848 -0.00030873 -0.000503597 -0.00122759 -0.00036456 -0.00034441 -0.00012724 0 0 0 0 0 0 0 0 0 0 0 0 0 0 0 0 0 0 0 0 0 0 0 0 0 0 0 0 0 0 0 0 -0.000562184 -0.00058804 -0.000370222 -0.000503673 -0.00148525 -0.000367184 -0.000363836 -0.000159243 0 0 0 0 0 0 0 0 0 0 0 0 0 0 0 0 0 0 0 0 0 0 0 0 0 0 0 0 0 0 0 0 -0.000563659 -0.00061683 -0.00041825 -0.000503829 -0.00171862 -0.000368689 -0.000394783 -0.000186808 0 0 0 0 0 0 0 0 0 0 0 0 0 0 0 0 0 0 0 0 0 0 0 0 0 0 0 0 0 0 0 0 -0.000564457 -0.000663504 -0.000454164 -0.000504167 -0.00171717 -0.000369516 -0.000441582 -0.000209236 0 0 0 0 0 0 0 0 0 0 0 0 0 0 0 0 0 0 0 0 0 0 0 0 0 0 0 0 0 0 0 0 -0.000564872 -0.000737137 -0.000479921 -0.000504885 -0.000959152 -0.000369953 -0.000508781 -0.00022649 0 0 0 0 0 0 0 0 0 0 0 0 0 0 0 0 0 0 0 0 0 0 0 0 0 0 0 0 0 0 0 0 -0.000565082 -0.000850996 -0.000497661 -0.000506354 -3.51672e-05 -0.000370176 -0.000600515 -0.000239061 0 0 0 0 0 0 0 0 0 0 0 0 0 0 0 0 0 0 0 0 0 0 0 0 0 0 0 0 0 0 0 0 -0.000565188 -0.00102516 -0.000509401 -0.000509243 -0.000104096 -0.00037029 -0.000719733 -0.000247754 0 0 0 0 0 0 0 0 0 0