# vtk DataFile Version 2.0
Velocidad
ASCII

DATASET STRUCTURED_GRID
DIMENSIONS   40   40   30

POINTS   48000   double
0.0125   0.0125   0.0166667
0.0375   0.0125   0.0166667
0.0625   0.0125   0.0166667
0.0875   0.0125   0.0166667
0.1125   0.0125   0.0166667
0.1375   0.0125   0.0166667
0.1625   0.0125   0.0166667
0.1875   0.0125   0.0166667
0.2125   0.0125   0.0166667
0.2375   0.0125   0.0166667
0.2625   0.0125   0.0166667
0.2875   0.0125   0.0166667
0.3125   0.0125   0.0166667
0.3375   0.0125   0.0166667
0.3625   0.0125   0.0166667
0.3875   0.0125   0.0166667
0.4125   0.0125   0.0166667
0.4375   0.0125   0.0166667
0.4625   0.0125   0.0166667
0.4875   0.0125   0.0166667
0.5125   0.0125   0.0166667
0.5375   0.0125   0.0166667
0.5625   0.0125   0.0166667
0.5875   0.0125   0.0166667
0.6125   0.0125   0.0166667
0.6375   0.0125   0.0166667
0.6625   0.0125   0.0166667
0.6875   0.0125   0.0166667
0.7125   0.0125   0.0166667
0.7375   0.0125   0.0166667
0.7625   0.0125   0.0166667
0.7875   0.0125   0.0166667
0.8125   0.0125   0.0166667
0.8375   0.0125   0.0166667
0.8625   0.0125   0.0166667
0.8875   0.0125   0.0166667
0.9125   0.0125   0.0166667
0.9375   0.0125   0.0166667
0.9625   0.0125   0.0166667
0.9875   0.0125   0.0166667
0.0125   0.0375   0.0166667
0.0375   0.0375   0.0166667
0.0625   0.0375   0.0166667
0.0875   0.0375   0.0166667
0.1125   0.0375   0.0166667
0.1375   0.0375   0.0166667
0.1625   0.0375   0.0166667
0.1875   0.0375   0.0166667
0.2125   0.0375   0.0166667
0.2375   0.0375   0.0166667
0.2625   0.0375   0.0166667
0.2875   0.0375   0.0166667
0.3125   0.0375   0.0166667
0.3375   0.0375   0.0166667
0.3625   0.0375   0.0166667
0.3875   0.0375   0.0166667
0.4125   0.0375   0.0166667
0.4375   0.0375   0.0166667
0.4625   0.0375   0.0166667
0.4875   0.0375   0.0166667
0.5125   0.0375   0.0166667
0.5375   0.0375   0.0166667
0.5625   0.0375   0.0166667
0.5875   0.0375   0.0166667
0.6125   0.0375   0.0166667
0.6375   0.0375   0.0166667
0.6625   0.0375   0.0166667
0.6875   0.0375   0.0166667
0.7125   0.0375   0.0166667
0.7375   0.0375   0.0166667
0.7625   0.0375   0.0166667
0.7875   0.0375   0.0166667
0.8125   0.0375   0.0166667
0.8375   0.0375   0.0166667
0.8625   0.0375   0.0166667
0.8875   0.0375   0.0166667
0.9125   0.0375   0.0166667
0.9375   0.0375   0.0166667
0.9625   0.0375   0.0166667
0.9875   0.0375   0.0166667
0.0125   0.0625   0.0166667
0.0375   0.0625   0.0166667
0.0625   0.0625   0.0166667
0.0875   0.0625   0.0166667
0.1125   0.0625   0.0166667
0.1375   0.0625   0.0166667
0.1625   0.0625   0.0166667
0.1875   0.0625   0.0166667
0.2125   0.0625   0.0166667
0.2375   0.0625   0.0166667
0.2625   0.0625   0.0166667
0.2875   0.0625   0.0166667
0.3125   0.0625   0.0166667
0.3375   0.0625   0.0166667
0.3625   0.0625   0.0166667
0.3875   0.0625   0.0166667
0.4125   0.0625   0.0166667
0.4375   0.0625   0.0166667
0.4625   0.0625   0.0166667
0.4875   0.0625   0.0166667
0.5125   0.0625   0.0166667
0.5375   0.0625   0.0166667
0.5625   0.0625   0.0166667
0.5875   0.0625   0.0166667
0.6125   0.0625   0.0166667
0.6375   0.0625   0.0166667
0.6625   0.0625   0.0166667
0.6875   0.0625   0.0166667
0.7125   0.0625   0.0166667
0.7375   0.0625   0.0166667
0.7625   0.0625   0.0166667
0.7875   0.0625   0.0166667
0.8125   0.0625   0.0166667
0.8375   0.0625   0.0166667
0.8625   0.0625   0.0166667
0.8875   0.0625   0.0166667
0.9125   0.0625   0.0166667
0.9375   0.0625   0.0166667
0.9625   0.0625   0.0166667
0.9875   0.0625   0.0166667
0.0125   0.0875   0.0166667
0.0375   0.0875   0.0166667
0.0625   0.0875   0.0166667
0.0875   0.0875   0.0166667
0.1125   0.0875   0.0166667
0.1375   0.0875   0.0166667
0.1625   0.0875   0.0166667
0.1875   0.0875   0.0166667
0.2125   0.0875   0.0166667
0.2375   0.0875   0.0166667
0.2625   0.0875   0.0166667
0.2875   0.0875   0.0166667
0.3125   0.0875   0.0166667
0.3375   0.0875   0.0166667
0.3625   0.0875   0.0166667
0.3875   0.0875   0.0166667
0.4125   0.0875   0.0166667
0.4375   0.0875   0.0166667
0.4625   0.0875   0.0166667
0.4875   0.0875   0.0166667
0.5125   0.0875   0.0166667
0.5375   0.0875   0.0166667
0.5625   0.0875   0.0166667
0.5875   0.0875   0.0166667
0.6125   0.0875   0.0166667
0.6375   0.0875   0.0166667
0.6625   0.0875   0.0166667
0.6875   0.0875   0.0166667
0.7125   0.0875   0.0166667
0.7375   0.0875   0.0166667
0.7625   0.0875   0.0166667
0.7875   0.0875   0.0166667
0.8125   0.0875   0.0166667
0.8375   0.0875   0.0166667
0.8625   0.0875   0.0166667
0.8875   0.0875   0.0166667
0.9125   0.0875   0.0166667
0.9375   0.0875   0.0166667
0.9625   0.0875   0.0166667
0.9875   0.0875   0.0166667
0.0125   0.1125   0.0166667
0.0375   0.1125   0.0166667
0.0625   0.1125   0.0166667
0.0875   0.1125   0.0166667
0.1125   0.1125   0.0166667
0.1375   0.1125   0.0166667
0.1625   0.1125   0.0166667
0.1875   0.1125   0.0166667
0.2125   0.1125   0.0166667
0.2375   0.1125   0.0166667
0.2625   0.1125   0.0166667
0.2875   0.1125   0.0166667
0.3125   0.1125   0.0166667
0.3375   0.1125   0.0166667
0.3625   0.1125   0.0166667
0.3875   0.1125   0.0166667
0.4125   0.1125   0.0166667
0.4375   0.1125   0.0166667
0.4625   0.1125   0.0166667
0.4875   0.1125   0.0166667
0.5125   0.1125   0.0166667
0.5375   0.1125   0.0166667
0.5625   0.1125   0.0166667
0.5875   0.1125   0.0166667
0.6125   0.1125   0.0166667
0.6375   0.1125   0.0166667
0.6625   0.1125   0.0166667
0.6875   0.1125   0.0166667
0.7125   0.1125   0.0166667
0.7375   0.1125   0.0166667
0.7625   0.1125   0.0166667
0.7875   0.1125   0.0166667
0.8125   0.1125   0.0166667
0.8375   0.1125   0.0166667
0.8625   0.1125   0.0166667
0.8875   0.1125   0.0166667
0.9125   0.1125   0.0166667
0.9375   0.1125   0.0166667
0.9625   0.1125   0.0166667
0.9875   0.1125   0.0166667
0.0125   0.1375   0.0166667
0.0375   0.1375   0.0166667
0.0625   0.1375   0.0166667
0.0875   0.1375   0.0166667
0.1125   0.1375   0.0166667
0.1375   0.1375   0.0166667
0.1625   0.1375   0.0166667
0.1875   0.1375   0.0166667
0.2125   0.1375   0.0166667
0.2375   0.1375   0.0166667
0.2625   0.1375   0.0166667
0.2875   0.1375   0.0166667
0.3125   0.1375   0.0166667
0.3375   0.1375   0.0166667
0.3625   0.1375   0.0166667
0.3875   0.1375   0.0166667
0.4125   0.1375   0.0166667
0.4375   0.1375   0.0166667
0.4625   0.1375   0.0166667
0.4875   0.1375   0.0166667
0.5125   0.1375   0.0166667
0.5375   0.1375   0.0166667
0.5625   0.1375   0.0166667
0.5875   0.1375   0.0166667
0.6125   0.1375   0.0166667
0.6375   0.1375   0.0166667
0.6625   0.1375   0.0166667
0.6875   0.1375   0.0166667
0.7125   0.1375   0.0166667
0.7375   0.1375   0.0166667
0.7625   0.1375   0.0166667
0.7875   0.1375   0.0166667
0.8125   0.1375   0.0166667
0.8375   0.1375   0.0166667
0.8625   0.1375   0.0166667
0.8875   0.1375   0.0166667
0.9125   0.1375   0.0166667
0.9375   0.1375   0.0166667
0.9625   0.1375   0.0166667
0.9875   0.1375   0.0166667
0.0125   0.1625   0.0166667
0.0375   0.1625   0.0166667
0.0625   0.1625   0.0166667
0.0875   0.1625   0.0166667
0.1125   0.1625   0.0166667
0.1375   0.1625   0.0166667
0.1625   0.1625   0.0166667
0.1875   0.1625   0.0166667
0.2125   0.1625   0.0166667
0.2375   0.1625   0.0166667
0.2625   0.1625   0.0166667
0.2875   0.1625   0.0166667
0.3125   0.1625   0.0166667
0.3375   0.1625   0.0166667
0.3625   0.1625   0.0166667
0.3875   0.1625   0.0166667
0.4125   0.1625   0.0166667
0.4375   0.1625   0.0166667
0.4625   0.1625   0.0166667
0.4875   0.1625   0.0166667
0.5125   0.1625   0.0166667
0.5375   0.1625   0.0166667
0.5625   0.1625   0.0166667
0.5875   0.1625   0.0166667
0.6125   0.1625   0.0166667
0.6375   0.1625   0.0166667
0.6625   0.1625   0.0166667
0.6875   0.1625   0.0166667
0.7125   0.1625   0.0166667
0.7375   0.1625   0.0166667
0.7625   0.1625   0.0166667
0.7875   0.1625   0.0166667
0.8125   0.1625   0.0166667
0.8375   0.1625   0.0166667
0.8625   0.1625   0.0166667
0.8875   0.1625   0.0166667
0.9125   0.1625   0.0166667
0.9375   0.1625   0.0166667
0.9625   0.1625   0.0166667
0.9875   0.1625   0.0166667
0.0125   0.1875   0.0166667
0.0375   0.1875   0.0166667
0.0625   0.1875   0.0166667
0.0875   0.1875   0.0166667
0.1125   0.1875   0.0166667
0.1375   0.1875   0.0166667
0.1625   0.1875   0.0166667
0.1875   0.1875   0.0166667
0.2125   0.1875   0.0166667
0.2375   0.1875   0.0166667
0.2625   0.1875   0.0166667
0.2875   0.1875   0.0166667
0.3125   0.1875   0.0166667
0.3375   0.1875   0.0166667
0.3625   0.1875   0.0166667
0.3875   0.1875   0.0166667
0.4125   0.1875   0.0166667
0.4375   0.1875   0.0166667
0.4625   0.1875   0.0166667
0.4875   0.1875   0.0166667
0.5125   0.1875   0.0166667
0.5375   0.1875   0.0166667
0.5625   0.1875   0.0166667
0.5875   0.1875   0.0166667
0.6125   0.1875   0.0166667
0.6375   0.1875   0.0166667
0.6625   0.1875   0.0166667
0.6875   0.1875   0.0166667
0.7125   0.1875   0.0166667
0.7375   0.1875   0.0166667
0.7625   0.1875   0.0166667
0.7875   0.1875   0.0166667
0.8125   0.1875   0.0166667
0.8375   0.1875   0.0166667
0.8625   0.1875   0.0166667
0.8875   0.1875   0.0166667
0.9125   0.1875   0.0166667
0.9375   0.1875   0.0166667
0.9625   0.1875   0.0166667
0.9875   0.1875   0.0166667
0.0125   0.2125   0.0166667
0.0375   0.2125   0.0166667
0.0625   0.2125   0.0166667
0.0875   0.2125   0.0166667
0.1125   0.2125   0.0166667
0.1375   0.2125   0.0166667
0.1625   0.2125   0.0166667
0.1875   0.2125   0.0166667
0.2125   0.2125   0.0166667
0.2375   0.2125   0.0166667
0.2625   0.2125   0.0166667
0.2875   0.2125   0.0166667
0.3125   0.2125   0.0166667
0.3375   0.2125   0.0166667
0.3625   0.2125   0.0166667
0.3875   0.2125   0.0166667
0.4125   0.2125   0.0166667
0.4375   0.2125   0.0166667
0.4625   0.2125   0.0166667
0.4875   0.2125   0.0166667
0.5125   0.2125   0.0166667
0.5375   0.2125   0.0166667
0.5625   0.2125   0.0166667
0.5875   0.2125   0.0166667
0.6125   0.2125   0.0166667
0.6375   0.2125   0.0166667
0.6625   0.2125   0.0166667
0.6875   0.2125   0.0166667
0.7125   0.2125   0.0166667
0.7375   0.2125   0.0166667
0.7625   0.2125   0.0166667
0.7875   0.2125   0.0166667
[...]
POINT_DATA   48000
VECTORS Velocidad double

0.000437207 2.69635e-07 -1.46265e-08
0.0013049 5.73962e-07 -1.88568e-08
0.00215194 7.44891e-07 -2.11172e-08
0.00296456 8.19229e-07 -2.21202e-08
0.00373024 8.24152e-07 -2.2127e-08
0.00443795 7.78818e-07 -2.12067e-08
0.00507867 6.97366e-07 -1.93934e-08
0.00564587 5.91114e-07 -1.67928e-08
0.00613596 4.70807e-07 -1.3712e-08
0.00654917 3.4974e-07 -1.08691e-08
0.00688745 2.48456e-07 0
0.0071552 2.12363e-07 0
0.0073605 2.29711e-07 0
0.00751262 3.27157e-07 0
0.00762124 5.6327e-07 0
0.00769564 1.04307e-06 0
0.00774399 1.94165e-06 0
0.00777276 3.53605e-06 0
0.00778581 6.25854e-06 0
0.00788975 1.0755e-05 0
0.00784048 1.92452e-05 0
0.00771575 2.32665e-05 0
0.00774151 2.01644e-05 0
0.00774489 1.77087e-05 0
0.00775173 1.52418e-05 0
0.00775855 1.26989e-05 0
0.00776329 1.02012e-05 0
0.00776326 7.93252e-06 0
0.00775469 6.08061e-06 0
0.0077383 4.84687e-06 0
0.00769289 4.78614e-06 0
0.00759813 3.48594e-06 0
0.00743615 2.4255e-06 0
0.00716496 1.52102e-06 0
0.00673764 7.02244e-07 0
0.00609912 -5.76975e-08 0
0.00519846 -7.68662e-07 0
0.00400731 -1.44303e-06 0
0.0025417 -2.06269e-06 0
0.000872858 -2.53519e-06 0
0.00128085 7.72701e-07 -2.5113e-08
0.0038238 1.64475e-06 -3.53228e-08
0.00630835 2.13731e-06 -4.17535e-08
0.00869487 2.35444e-06 -4.53966e-08
0.0109475 2.37281e-06 -4.67257e-08
0.0130343 2.24637e-06 -4.59051e-08
0.0149288 2.01496e-06 -4.30277e-08
0.0166113 1.71072e-06 -3.8356e-08
0.0180703 1.3647e-06 -3.2627e-08
0.0193043 1.01616e-06 -2.75073e-08
0.0203185 7.26589e-07 0
0.0211258 6.2742e-07 0
0.021748 6.86422e-07 0
0.0222115 9.90047e-07 0
0.0225441 1.71707e-06 0
0.0227733 3.18945e-06 0
0.0229234 5.94288e-06 0
0.0230143 1.08157e-05 0
0.0230596 1.90663e-05 0
0.0232027 3.24046e-05 0
0.0231508 5.59958e-05 0
0.0229752 6.42906e-05 0
0.0229831 6.23283e-05 0
0.0229898 5.71515e-05 0
0.0230029 4.99959e-05 0
0.0230168 4.18744e-05 0
0.023026 3.36855e-05 0
0.023023 2.61851e-05 0
0.0229974 2.00322e-05 0
0.022941 1.59157e-05 0
0.0228081 1.56762e-05 0
0.0225431 1.1838e-05 0
0.0220808 8.58124e-06 0
0.0213051 5.63539e-06 0
0.0200722 2.97059e-06 0
0.0182127 5.69446e-07 0
0.0155639 -1.55234e-06 0
0.0120274 -3.33391e-06 0
0.00764022 -4.55196e-06 0
0.00262465 -4.49824e-06 0
0.002046 1.16045e-06 -2.97783e-08
0.00611024 2.48422e-06 -4.35373e-08
0.0100862 3.24034e-06 -5.30621e-08
0.0139125 3.5811e-06 -5.90848e-08
0.0175338 3.61992e-06 -6.20273e-08
0.0209001 3.43698e-06 -6.20295e-08
0.023969 3.09186e-06 -5.91793e-08
0.026708 2.63313e-06 -5.38186e-08
0.0290965 2.10877e-06 -4.69592e-08
0.0311285 1.58084e-06 -4.08972e-08
0.0328097 1.14736e-06 -8.03338e-09
0.0341581 1.00844e-06 -7.99089e-09
0.0352055 1.13324e-06 -8.98848e-09
0.0359917 1.67766e-06 -1.4754e-08
0.0365608 2.9543e-06 -3.24647e-08
0.0369564 5.5264e-06 -7.82964e-08
0.0372185 1.03311e-05 -1.90547e-07
0.0373804 1.88274e-05 -4.59876e-07
0.0374666 3.31565e-05 -1.15079e-06
0.0376422 5.60543e-05 -2.85002e-06
0.037596 9.50708e-05 -1.114e-05
0.0374008 0.00010655 -1.01162e-05
0.0373967 0.000109433 -7.75157e-06
0.037398 0.00010284 -5.62755e-06
0.0374119 9.08114e-05 -4.00268e-06
0.0374291 7.62756e-05 -2.80315e-06
0.0374411 6.14105e-05 -1.92275e-06
0.0374367 4.78101e-05 -1.26996e-06
0.0373994 3.67794e-05 -7.71012e-07
0.0373148 2.96827e-05 -3.67395e-07
0.0371153 3.01926e-05 -1.01121e-08
0.0367169 2.36007e-05 1.44413e-07
0.0360151 1.77394e-05 2.02151e-07
0.0348237 1.22267e-05 2.30421e-07
0.0329037 7.26667e-06 2.65712e-07
0.0299642 2.94209e-06 3.32345e-07
0.0257123 -6.50995e-07 4.58987e-07
0.0199517 -3.3127e-06 6.95486e-07
0.0127165 -4.58367e-06 1.09113e-06
0.00437671 -3.41395e-06 1.7074e-06
0.00270501 1.39717e-06 -3.18219e-08
0.00808149 3.0165e-06 -4.76282e-08
0.0133488 3.95416e-06 -5.92919e-08
0.0184286 4.38714e-06 -6.72352e-08
0.023251 4.45007e-06 -7.17211e-08
0.0277515 4.23918e-06 -7.27958e-08
0.0318743 3.82659e-06 -7.0496e-08
0.0355747 3.27193e-06 -6.51898e-08
0.0388226 2.63541e-06 -5.80755e-08
0.0416052 1.99637e-06 -5.19353e-08
0.0439255 1.48076e-06 -2.32391e-08
0.0458024 1.33725e-06 -2.47916e-08
0.0472735 1.56679e-06 -2.87807e-08
0.0483882 2.40616e-06 -5.06013e-08
0.0492027 4.32568e-06 -1.15302e-07
0.0497749 8.17147e-06 -2.78069e-07
0.0501585 1.53565e-05 -6.61384e-07
0.0503999 2.80916e-05 -1.53346e-06
0.0505348 4.96403e-05 -3.47726e-06
0.0507475 8.42101e-05 -7.71176e-06
0.050713 0.000143496 -1.81773e-05
0.0505055 0.00016124 -2.05854e-05
0.0504921 0.000164592 -1.91574e-05
0.0504866 0.00015451 -1.55024e-05
0.0504985 0.000136207 -1.17441e-05
0.0505172 0.000114163 -8.53696e-06
0.050532 9.18056e-05 -5.98813e-06
0.0505288 7.16559e-05 -4.00976e-06
0.050487 5.58086e-05 -2.46415e-06
0.0503896 4.65379e-05 -1.22487e-06
0.0501486 5.02773e-05 -2.52198e-07
0.0496594 4.03892e-05 4.31511e-07
0.0487901 3.11434e-05 6.18545e-07
0.047291 2.22604e-05 6.82682e-07
0.0448337 1.43228e-05 7.17108e-07
0.0410028 7.58025e-06 7.68369e-07
0.0353576 2.20356e-06 8.46666e-07
0.0275727 -1.56594e-06 9.04363e-07
0.017647 -3.2972e-06 7.75841e-07
0.00608819 -2.36901e-06 -1.42146e-07
0.00324779 1.50116e-06 -3.27647e-08
0.00970673 3.26258e-06 -4.98487e-08
0.0160434 4.29552e-06 -6.30244e-08
0.0221677 4.78331e-06 -7.247e-08
0.0279993 4.86808e-06 -7.82879e-08
0.0334631 4.65253e-06 -8.04172e-08
0.0384924 4.21441e-06 -7.88308e-08
0.0430322 3.61906e-06 -7.39009e-08
0.0470428 2.93403e-06 -6.69721e-08
0.0505037 2.25019e-06 -6.12582e-08
0.0534124 1.71341e-06 -3.77654e-08
0.0557858 1.60744e-06 -4.05403e-08
0.0576631 1.98477e-06 -4.97901e-08
0.0590991 3.17895e-06 -9.05318e-08
0.0601588 5.84411e-06 -2.07199e-07
0.0609107 1.11567e-05 -4.95037e-07
0.0614208 2.10928e-05 -1.15795e-06
0.061747 3.87745e-05 -2.61661e-06
0.0619354 6.88781e-05 -5.71122e-06
0.0621928 0.000117572 -1.19348e-05
0.0621725 0.000202301 -2.57483e-05
0.0619507 0.000226482 -2.94382e-05
0.0619289 0.00022892 -2.81497e-05
0.0619163 0.000213092 -2.35934e-05
0.0619254 0.000186526 -1.83432e-05
0.0619452 0.000155457 -1.35643e-05
0.0619636 0.000124619 -9.615e-06
0.0619645 9.75075e-05 -6.48196e-06
0.0619243 7.71405e-05 -4.01655e-06
0.0618292 6.69956e-05 -2.06259e-06
0.0615685 7.75798e-05 -5.82126e-07
0.0610248 6.37895e-05 5.01963e-07
0.0600543 5.0133e-05 8.91557e-07
0.058351 3.66934e-05 1.02179e-06
0.0555073 2.47458e-05 1.05798e-06
0.0509868 1.47968e-05 1.07579e-06
0.0441922 7.0567e-06 1.08531e-06
0.0346436 1.68055e-06 1.02846e-06
0.0222714 -1.12573e-06 7.61524e-07
0.00770355 -1.24295e-06 1.63268e-07
0.00367739 1.49821e-06 -3.33037e-08
0.0109943 3.27217e-06 -5.1391e-08
0.018182 4.32345e-06 -6.57527e-08
0.0251423 4.82931e-06 -7.64028e-08
0.0317884 4.92919e-06 -8.3322e-08
0.0380376 4.72475e-06 -8.63639e-08
0.0438154 4.29378e-06 -8.54493e-08
0.0490581 3.70279e-06 -8.09573e-08
0.0537175 3.02235e-06 -7.43692e-08
0.0577653 2.34986e-06 -6.93125e-08
0.0611925 1.84424e-06 -5.04333e-08
0.0640116 1.81312e-06 -5.53402e-08
0.0662604 2.37314e-06 -6.89741e-08
0.0679959 3.9657e-06 -1.24453e-07
0.0692884 7.44732e-06 -2.80626e-07
0.0702143 1.436e-05 -6.62274e-07
0.070849 2.73126e-05 -1.53146e-06
0.0712602 5.04735e-05 -3.41482e-06
0.0715032 9.01902e-05 -7.32509e-06
0.0718121 0.000155027 -1.49944e-05
0.0718054 0.000269706 -3.14283e-05
0.0715626 0.000299249 -3.61377e-05
0.0715321 0.000299164 -3.4896e-05
0.0715123 0.000275498 -2.9645e-05
0.0715187 0.000238873 -2.3342e-05
0.07154 0.000197578 -1.74348e-05
0.0715632 0.000157704 -1.24527e-05
0.0715706 0.000123726 -8.45255e-06
0.0715366 9.97053e-05 -5.29629e-06
0.0714561 9.06559e-05 -2.81897e-06
0.0711904 0.00011278 -1.00909e-06
0.0706168 9.43424e-05 3.65173e-07
0.0695969 7.50524e-05 9.02591e-07
0.0677746 5.56511e-05 1.10754e-06
0.0646757 3.84848e-05 1.16852e-06
0.0596541 2.44135e-05 1.17688e-06
0.051958 1.36417e-05 1.15056e-06
0.0409394 6.11985e-06 1.04428e-06
0.0264342 1.70711e-06 7.65156e-07
0.00916698 6.50969e-09 2.47746e-07
0.00400524 1.41773e-06 -3.37628e-08
0.0119779 3.10706e-06 -5.28576e-08
0.0198181 4.11633e-06 -6.82849e-08
0.0274232 4.60909e-06 -7.9955e-08
0.0347021 4.71542e-06 -8.77749e-08
0.0415676 4.53083e-06 -9.15469e-08
0.0479393 4.12915e-06 -9.1165e-08
0.053747 3.57465e-06 -8.70313e-08
0.0589354 2.93754e-06 -8.07722e-08
0.0634692 2.31744e-06 -7.64364e-08
0.0673327 1.88012e-06 -6.18842e-08
0.0705331 1.94669e-06 -6.94087e-08
0.0731053 2.70113e-06 -8.69548e-08
0.0751059 4.69162e-06 -1.54418e-07
0.0766079 8.97474e-06 -3.42217e-07
0.077693 1.74578e-05 -7.988e-07
0.0784435 3.33954e-05 -1.8332e-06
0.0789348 6.20553e-05 -4.05996e-06
0.0792297 0.000111609 -8.64665e-06
0.0795956 0.000193341 -1.75736e-05
0.0795992 0.000340682 -3.64753e-05
0.0793251 0.000372969 -4.23835e-05
0.0792851 0.000368045 -4.12016e-05
0.0792579 0.000334712 -3.52878e-05
0.0792625 0.000287043 -2.80081e-05
0.0792864 0.000235368 -2.10682e-05
0.0793157 0.000186974 -1.51423e-05
0.0793311 0.000147193 -1.03512e-05
0.079306 0.000121167 -6.5747e-06
0.0792502 0.000115739 -3.65194e-06
0.0789866 0.000154433 -1.63156e-06
0.0783944 0.000130549 -1.04895e-08
0.0773604 0.000104475 6.67223e-07
0.0754808 7.78601e-05 9.6883e-07
0.0722292 5.44613e-05 1.08592e-06
0.066865 3.55475e-05 1.11617e-06
0.0584947 2.12551e-05 1.08668e-06
0.0463038 1.12268e-05 9.70071e-07
0.0300184 4.8905e-06 7.05623e-07
0.0104348 1.32448e-06 2.57268e-07
0.00424702 1.2877e-06 -3.42779e-08
0.0127037 2.82826e-06 -5.45026e-08
0.0210274 3.75395e-06 -7.09823e-08
0.0291124 4.21058e-06 -8.35645e-08
0.0368657 4.31509e-06 -9.21247e-08
0.0441971 4.1538e-06 -9.64485e-08
0.0510222 3.79405e-06 -9.64306e-08
0.0572664 3.2956e-06 -9.25185e-08
0.0628687 2.72562e-06 -8.65019e-08
0.0677878 2.18205e-06 -8.28745e-08
0.0720022 1.8312e-06 -7.23459e-08
0.0755138 1.99606e-06 -8.29759e-08
0.0783536 2.91884e-06 -1.04766e-07
0.080577 5.23365e-06 -1.84091e-07
0.0822577 1.01591e-05 -4.02452e-07
0.0834804 1.99051e-05 -9.31285e-07
0.0843324 3.82824e-05 -2.1263e-06
0.0848948 7.1558e-05 -4.6929e-06
0.085236 0.000129678 -9.96884e-06
0.085663 0.000226774 -2.02295e-05
0.0856708 0.000406161 -4.18977e-05
0.0853525 0.000436358 -4.9184e-05
0.0853024 0.000423649 -4.81037e-05
0.0852686 0.000379638 -4.14614e-05
0.0852726 0.000321572 -3.31055e-05
0.0853007 0.000261233 -2.50378e-05
0.0853372 0.000206563 -1.80903e-05
0.0853618 0.000163387 -1.2453e-05
0.0853465 0.000137796 -8.0303e-06
0.0853232 0.000138561 -4.67945e-06
0.0850626 0.000197545 -2.57038e-06
0.0844521 0.000167612 -6.88812e-07
0.0834249 0.000134241 1.48479e-07
0.0815282 0.000100002 5.9361e-07
0.0781961 7.01779e-05 8.17082e-07
0.0726115 4.63924e-05 9.14928e-07
0.0637591 2.86309e-05 9.22485e-07
0.0506723 1.61576e-05 8.29946e-07
0.0329653 7.93726e-06 6.02338e-07
0.011483 2.55156e-06 2.22776e-07
0.00441955 1.1319e-06 -3.48905e-08
0.0132221 2.48879e-06 -5.63821e-08
0.021892 3.307e-06 -7.39345e-08
0.0303224 3.71314e-06 -8.7359e-08
0.0384191 3.80937e-06 -9.65322e-08
0.0460903 3.6714e-06 -1.01252e-07
0.0532491 3.35877e-06 -1.01438e-07
0.0598177 2.9252e-06 -9.76058e-08
0.0657308 2.43264e-06 -9.17281e-08
0.0709428 1.9735e-06 -8.87751e-08
0.0754271 1.70723e-06 -8.19842e-08
0.079181 1.94417e-06 -9.62853e-08
0.0822321 2.96097e-06 -1.23568e-07
0.0846334 5.43102e-06 -2.17247e-07
0.0864585 1.06479e-05 -4.71435e-07
0.0877939 2.09729e-05 -1.084e-06
0.0887301 4.05317e-05 -2.4649e-06
0.0893521 7.62517e-05 -5.4269e-06
0.089732 0.000139473 -1.15134e-05
0.0902233 0.000246945 -2.33635e-05
0.090227 0.000452587 -4.84057e-05
0.0898502 0.000473067 -5.7246e-05
0.0897911 0.000449608 -5.62478e-05
0.0897525 0.000395788 -4.87161e-05
0.0897583 0.000330661 -3.90744e-05
0.0897922 0.000266071 -2.96747e-05
0.0898369 0.000209602 -2.15332e-05
0.089871 0.000166935 -1.49213e-05
0.0898653 0.000144712 -9.77789e-06
0.0898806 0.000153333 -6.00003e-06
0.089619 0.000232516 -3.98105e-06
0.0889836 0.000196617 -1.78474e-06
0.0879737 0.000156941 -7.38535e-07
0.0860826 0.000116461 -7.45431e-08
0.0827167 8.16342e-05 3.32744e-07
0.076999 5.42205e-05 5.64984e-07
0.0678161 3.39708e-05 6.62675e-07
0.0540719 1.97762e-05 6.33799e-07
0.035278 1.02042e-05 4.67175e-07
0.0123099 3.46054e-06 1.67326e-07
0.00453878 9.68873e-07 -3.55982e-08
0.0135805 2.13054e-06 -5.8453e-08
0.0224905 2.83205e-06 -7.70878e-08
0.0311613 3.18111e-06 -9.12953e-08
0.0394983 3.26496e-06 -1.00977e-07
0.0474087 3.14844e-06 -1.05964e-07
0.0548044 2.88276e-06 -1.06221e-07
0.0616051 2.51467e-06 -1.02344e-07
0.0677428 2.09893e-06 -9.65105e-08
0.0731684 1.7183e-06 -9.41894e-08
0.0778517 1.51653e-06 -9.09677e-08
0.081786 1.77305e-06 -1.09615e-07
0.084996 2.76059e-06 -1.44381e-07
0.0875326 5.11751e-06 -2.56896e-07
0.0894688 1.00706e-05 -5.56776e-07
0.0908919 1.98761e-05 -1.27441e-06
0.0918943 3.85406e-05 -2.88635e-06
0.0925638 7.29808e-05 -6.33674e-06
0.0929743 0.000135035 -1.34206e-05
0.0935319 0.000243217 -2.72198e-05
0.0935215 0.000461798 -5.64012e-05
0.0930729 0.000462336 -6.69586e-05
0.0930088 0.000426674 -6.59754e-05
0.0929693 0.000367396 -5.73253e-05
0.09298 0.000302354 -4.61222e-05
0.0930212 0.000241196 -3.51301e-05
0.0930746 0.000189765 -2.55783e-05
0.0931177 0.000152768 -1.78336e-05
0.0931203 0.000136717 -1.18847e-05
0.0931774 0.000152731 -7.70073e-06
0.0929086 0.000245396 -6.04676e-06
0.0922394 0.000205096 -3.45512e-06
0.091251 0.000162612 -2.12479e-06
0.0893764 0.000120011 -1.12846e-06
0.0860034 8.39091e-05 -4.27071e-07
0.0802107 5.58243e-05 3.16387e-08
0.0708097 3.52508e-05 2.90652e-07
0.0566016 2.08523e-05 3.74761e-07
0.0370115 1.10122e-05 2.99357e-07
0.0129322 3.81218e-06 9.60612e-08
0.00461858 8.11908e-07 -3.63832e-08
0.0138205 1.78386e-06 -6.06382e-08
0.0228918 2.3705e-06 -8.0336e-08
0.0317245 2.66203e-06 -9.52636e-08
0.040224 2.73167e-06 -1.05363e-07
0.0482973 2.63381e-06 -1.10514e-07
0.0558551 2.41143e-06 -1.10734e-07
0.0628159 2.10371e-06 -1.06715e-07
0.0691097 1.75648e-06 -1.00837e-07
0.0746851 1.43851e-06 -9.9075e-08
0.079509 1.26816e-06 -9.94412e-08
0.0835721 1.47301e-06 -1.2318e-07
0.0868963 2.27317e-06 -1.67823e-07
0.0895311 4.17637e-06 -3.04684e-07
0.0915487 8.15536e-06 -6.6238e-07
0.0930367 1.60074e-05 -1.51098e-06
0.0940888 3.09826e-05 -3.40751e-06
0.0947943 5.8909e-05 -7.45348e-06
0.0952279 0.00011047 -1.57422e-05
0.0958521 0.000203917 -3.18723e-05
0.0958165 0.000411122 -6.59554e-05
0.0952874 0.000381233 -7.83342e-05
0.0952273 0.000336448 -7.72859e-05
0.0951929 0.000281506 -6.72754e-05
0.0952117 0.000228197 -5.4228e-05
0.0952611 0.000181248 -4.13814e-05
0.0953222 0.000143459 -3.02076e-05
0.0953725 0.000117823 -2.11842e-05
0.0953813 0.000109803 -1.43696e-05
0.0954788 0.000129589 -9.84825e-06
0.0951971 0.000220287 -8.9641e-06
0.0944891 0.000179748 -5.87017e-06
0.0935227 0.000141272 -4.1662e-06
0.0916676 0.000103846 -2.68388e-06
0.0883002 7.2625e-05 -1.53765e-06
0.0824681 4.84926e-05 -7.30415e-07
0.0729279 3.08348e-05 -2.21353e-07
0.0584039 1.84279e-05 3.73296e-08
0.0382539 9.84724e-06 9.14719e-08
0.0133799 3.43053e-06 8.66337e-09
0.00467033 6.69749e-07 -3.72279e-08
0.0139763 1.46883e-06 -6.2866e-08
0.0231522 1.94996e-06 -8.35778e-08
0.0320905 2.18787e-06 -9.91554e-08
0.0406965 2.24324e-06 -1.09592e-07
0.0488768 2.16097e-06 -1.14821e-07
0.0565419 1.97621e-06 -1.14922e-07
0.0636092 1.72039e-06 -1.10676e-07
0.0700075 1.42898e-06 -1.0466e-07
0.0756839 1.15291e-06 -1.03311e-07
0.0806032 9.76062e-07 -1.07467e-07
0.0847543 1.05425e-06 -1.36982e-07
0.0881572 1.50509e-06 -1.93811e-07
0.0908602 2.60648e-06 -3.60313e-07
0.0929347 4.87593e-06 -7.87302e-07
0.0944685 9.25157e-06 -1.79091e-06
0.095556 1.7447e-05 -4.02073e-06
0.0962878 3.2728e-05 -8.7573e-06
0.0967384 6.19675e-05 -1.8429e-05
0.0974249 0.00011904 -3.72036e-05
0.0973547 0.000273992 -7.67651e-05
0.0967474 0.000210043 -9.09434e-05
0.0967061 0.000168335 -8.9775e-05
0.0966837 0.00013428 -7.82191e-05
0.0967123 0.000108056 -6.31092e-05
0.0967684 8.75935e-05 -4.82104e-05
0.0968343 7.22161e-05 -3.52632e-05
0.0968885 6.29344e-05 -2.48719e-05
0.0969004 6.31773e-05 -1.719e-05
0.09703 7.98023e-05 -1.24702e-05
0.0967331 0.000144157 -1.28172e-05
0.0959905 0.000111688 -9.17288e-06
0.0950446 8.73911e-05 -6.99644e-06
0.0932067 6.48471e-05 -4.83873e-06
0.0898482 4.61021e-05 -3.06155e-06
0.0839956 3.13377e-05 -1.75713e-06
0.0743682 2.02518e-05 -8.92579e-07
0.0596359 1.22513e-05 -3.90231e-07
0.039107 6.58427e-06 -1.62662e-07
0.0136881 2.27942e-06 -9.55371e-08
0.00470283 5.47611e-07 -3.81229e-08
0.0140741 1.19748e-06 -6.50909e-08
0.023316 1.58703e-06 -8.67485e-08
0.0323209 1.77794e-06 -1.02902e-07
0.0409942 1.82019e-06 -1.13602e-07
0.0492426 1.75044e-06 -1.18839e-07
0.0569761 1.59675e-06 -1.18752e-07
0.0641118 1.38296e-06 -1.14201e-07
0.0705776 1.13344e-06 -1.07923e-07
0.0763195 8.7891e-07 -1.06731e-07
0.0813012 6.62658e-07 -1.14965e-07
0.08551 5.55254e-07 -1.50668e-07
0.0889649 5.3431e-07 -2.21272e-07
0.0917131 5.72878e-07 -4.20947e-07
0.0938256 5.75011e-07 -9.24561e-07
0.0953902 2.81519e-07 -2.09783e-06
0.0965019 -8.65801e-07 -4.68925e-06
0.097252 -3.78049e-06 -1.0169e-05
0.0977154 -9.00098e-06 -2.13166e-05
0.0984494 -1.42179e-05 -4.28836e-05
0.0983428 2.34642e-05 -8.81311e-05
0.0976827 -5.57837e-05 -0.000103888
0.0976774 -6.93534e-05 -0.000102601
0.0976703 -6.12538e-05 -8.94388e-05
0.097706 -4.52089e-05 -7.21911e-05
0.0977636 -2.90411e-05 -5.51801e-05
0.0978289 -1.57351e-05 -4.04293e-05
0.097882 -5.82892e-06 -2.86825e-05
0.0978933 1.20565e-06 -2.02178e-05
0.0980379 6.02612e-06 -1.55173e-05
0.0977298 1.38871e-05 -1.76507e-05
0.0969714 3.72575e-06 -1.33856e-05
0.0960417 5.32198e-06 -1.06275e-05
0.0942144 7.04724e-06 -7.59468e-06
0.0908611 7.37991e-06 -4.99432e-06
0.0849957 6.41152e-06 -3.04283e-06
0.0753132 4.78861e-06 -1.71779e-06
0.0604465 3.08154e-06 -9.03344e-07
0.03967 1.63106e-06 -4.59595e-07
0.0138918 5.07592e-07 -2.1396e-07
0.00472259 4.48304e-07 -3.90705e-08
0.0141336 9.76249e-07 -6.73031e-08
0.0234157 1.29059e-06 -8.98335e-08
0.0324612 1.44259e-06 -1.06491e-07
0.0411758 1.47357e-06 -1.17388e-07
0.049466 1.41339e-06 -1.22574e-07
0.0572418 1.28404e-06 -1.22237e-07
0.0644199 1.10241e-06 -1.17297e-07
0.0709277 8.82137e-07 -1.10597e-07
0.0767105 6.33635e-07 -1.09186e-07
0.0817314 3.58892e-07 -1.21678e-07
0.0859766 4.16391e-08 -1.63436e-07
0.0894645 -4.92154e-07 -2.47971e-07
0.0922414 -1.59441e-06 -4.80897e-07
0.094378 -4.02028e-06 -1.06048e-06
0.0959622 -9.34548e-06 -2.40036e-06
0.0970895 -2.07462e-05 -5.34418e-06
0.0978519 -4.43795e-05 -1.15442e-05
0.0983256 -9.1576e-05 -2.41163e-05
0.0990698 -0.000181225 -4.83659e-05
0.0989471 -0.000351354 -9.90084e-05
0.0983 -0.00038283 -0.000115856
0.0983371 -0.000335852 -0.000114507
0.0983383 -0.000269511 -9.98507e-05
0.0983709 -0.000204196 -8.06047e-05
0.098421 -0.000148706 -6.1633e-05
0.098478 -0.000105998 -4.52301e-05
0.098524 -7.73824e-05 -3.22788e-05
0.0985307 -6.57308e-05 -2.32014e-05
0.0986628 -7.8993e-05 -1.87523e-05
0.0983578 -0.00015425 -2.30267e-05
0.0976189 -0.000122482 -1.81957e-05
0.0966952 -8.69553e-05 -1.48091e-05
0.0948682 -5.6852e-05 -1.07653e-05
0.0915121 -3.52961e-05 -7.20551e-06
0.0856345 -2.12087e-05 -4.50134e-06
0.075915 -1.25452e-05 -2.64333e-06
0.0609624 -7.36572e-06 -1.47031e-06
0.0400285 -4.112e-06 -7.81607e-07
0.0140217 -1.56917e-06 -3.38958e-07
0.00473424 3.73306e-07 -4.00863e-08
0.0141687 8.0841e-07 -6.95302e-08
0.0234745 1.06509e-06 -9.28711e-08
0.0325441 1.18693e-06 -1.09971e-07
0.0412831 1.20878e-06 -1.21008e-07
0.0495982 1.15531e-06 -1.26088e-07
0.0573992 1.04373e-06 -1.25443e-07
0.0646026 8.85166e-07 -1.20023e-07
0.0711356 6.84077e-07 -1.12711e-07
0.0769432 4.3333e-07 -1.1062e-07
0.0819877 9.93403e-08 -1.27194e-07
0.0862551 -4.07972e-07 -1.74088e-07
0.089763 -1.3928e-06 -2.70657e-07
0.0925574 -3.47915e-06 -5.31993e-07
0.0947087 -7.96572e-06 -1.17553e-06
0.0963046 -1.75073e-05 -2.65376e-06
0.0974411 -3.74599e-05 -5.88714e-06
0.0982112 -7.85569e-05 -1.26761e-05
0.0986941 -0.000163072 -2.6417e-05
0.0993727 -0.000334013 -5.28916e-05
0.099298 -0.000793562 -0.000108117
0.0987852 -0.00066706 -0.00012524
0.0988324 -0.000553771 -0.000123896
0.0988194 -0.000436682 -0.000108054
0.0988333 -0.000332789 -8.72331e-05
0.0988651 -0.000247081 -6.6735e-05
0.0989063 -0.000181595 -4.90651e-05
0.0989399 -0.000138191 -3.52213e-05
0.0989387 -0.000122874 -2.57689e-05
0.0990229 -0.00015135 -2.17371e-05
0.098746 -0.000314121 -2.81728e-05
0.0980732 -0.0002238 -2.29223e-05