# vtk DataFile Version 2.0
Velocidad
ASCII

DATASET STRUCTURED_GRID
DIMENSIONS   40   40   30

POINTS   48000   double
0.0125   0.0125   0.0166667
0.0375   0.0125   0.0166667
0.0625   0.0125   0.0166667
0.0875   0.0125   0.0166667
0.1125   0.0125   0.0166667
0.1375   0.0125   0.0166667
0.1625   0.0125   0.0166667
0.1875   0.0125   0.0166667
0.2125   0.0125   0.0166667
0.2375   0.0125   0.0166667
0.2625   0.0125   0.0166667
0.2875   0.0125   0.0166667
0.3125   0.0125   0.0166667
0.3375   0.0125   0.0166667
0.3625   0.0125   0.0166667
0.3875   0.0125   0.0166667
0.4125   0.0125   0.0166667
0.4375   0.0125   0.0166667
0.4625   0.0125   0.0166667
0.4875   0.0125   0.0166667
0.5125   0.0125   0.0166667
0.5375   0.0125   0.0166667
0.5625   0.0125   0.0166667
0.5875   0.0125   0.0166667
0.6125   0.0125   0.0166667
0.6375   0.0125   0.0166667
0.6625   0.0125   0.0166667
0.6875   0.0125   0.0166667
0.7125   0.0125   0.0166667
0.7375   0.0125   0.0166667
0.7625   0.0125   0.0166667
0.7875   0.0125   0.0166667
0.8125   0.0125   0.0166667
0.8375   0.0125   0.0166667
0.8625   0.0125   0.0166667
0.8875   0.0125   0.0166667
0.9125   0.0125   0.0166667
0.9375   0.0125   0.0166667
0.9625   0.0125   0.0166667
0.9875   0.0125   0.0166667
0.0125   0.0375   0.0166667
0.0375   0.0375   0.0166667
0.0625   0.0375   0.0166667
0.0875   0.0375   0.0166667
0.1125   0.0375   0.0166667
0.1375   0.0375   0.0166667
0.1625   0.0375   0.0166667
0.1875   0.0375   0.0166667
0.2125   0.0375   0.0166667
0.2375   0.0375   0.0166667
0.2625   0.0375   0.0166667
0.2875   0.0375   0.0166667
0.3125   0.0375   0.0166667
0.3375   0.0375   0.0166667
0.3625   0.0375   0.0166667
0.3875   0.0375   0.0166667
0.4125   0.0375   0.0166667
0.4375   0.0375   0.0166667
0.4625   0.0375   0.0166667
0.4875   0.0375   0.0166667
0.5125   0.0375   0.0166667
0.5375   0.0375   0.0166667
0.5625   0.0375   0.0166667
0.5875   0.0375   0.0166667
0.6125   0.0375   0.0166667
0.6375   0.0375   0.0166667
0.6625   0.0375   0.0166667
0.6875   0.0375   0.0166667
0.7125   0.0375   0.0166667
0.7375   0.0375   0.0166667
0.7625   0.0375   0.0166667
0.7875   0.0375   0.0166667
0.8125   0.0375   0.0166667
0.8375   0.0375   0.0166667
0.8625   0.0375   0.0166667
0.8875   0.0375   0.0166667
0.9125   0.0375   0.0166667
0.9375   0.0375   0.0166667
0.9625   0.0375   0.0166667
0.9875   0.0375   0.0166667
0.0125   0.0625   0.0166667
0.0375   0.0625   0.0166667
0.0625   0.0625   0.0166667
0.0875   0.0625   0.0166667
0.1125   0.0625   0.0166667
0.1375   0.0625   0.0166667
0.1625   0.0625   0.0166667
0.1875   0.0625   0.0166667
0.2125   0.0625   0.0166667
0.2375   0.0625   0.0166667
0.2625   0.0625   0.0166667
0.2875   0.0625   0.0166667
0.3125   0.0625   0.0166667
0.3375   0.0625   0.0166667
0.3625   0.0625   0.0166667
0.3875   0.0625   0.0166667
0.4125   0.0625   0.0166667
0.4375   0.0625   0.0166667
0.4625   0.0625   0.0166667
0.4875   0.0625   0.0166667
0.5125   0.0625   0.0166667
0.5375   0.0625   0.0166667
0.5625   0.0625   0.0166667
0.5875   0.0625   0.0166667
0.6125   0.0625   0.0166667
0.6375   0.0625   0.0166667
0.6625   0.0625   0.0166667
0.6875   0.0625   0.0166667
0.7125   0.0625   0.0166667
0.7375   0.0625   0.0166667
0.7625   0.0625   0.0166667
0.7875   0.0625   0.0166667
0.8125   0.0625   0.0166667
0.8375   0.0625   0.0166667
0.8625   0.0625   0.0166667
0.8875   0.0625   0.0166667
0.9125   0.0625   0.0166667
0.9375   0.0625   0.0166667
0.9625   0.0625   0.0166667
0.9875   0.0625   0.0166667
0.0125   0.0875   0.0166667
0.0375   0.0875   0.0166667
0.0625   0.0875   0.0166667
0.0875   0.0875   0.0166667
0.1125   0.0875   0.0166667
0.1375   0.0875   0.0166667
0.1625   0.0875   0.0166667
0.1875   0.0875   0.0166667
0.2125   0.0875   0.0166667
0.2375   0.0875   0.0166667
0.2625   0.0875   0.0166667
0.2875   0.0875   0.0166667
0.3125   0.0875   0.0166667
0.3375   0.0875   0.0166667
0.3625   0.0875   0.0166667
0.3875   0.0875   0.0166667
0.4125   0.0875   0.0166667
0.4375   0.0875   0.0166667
0.4625   0.0875   0.0166667
0.4875   0.0875   0.0166667
0.5125   0.0875   0.0166667
0.5375   0.0875   0.0166667
0.5625   0.0875   0.0166667
0.5875   0.0875   0.0166667
0.6125   0.0875   0.0166667
0.6375   0.0875   0.0166667
0.6625   0.0875   0.0166667
0.6875   0.0875   0.0166667
0.7125   0.0875   0.0166667
0.7375   0.0875   0.0166667
0.7625   0.0875   0.0166667
0.7875   0.0875   0.0166667
0.8125   0.0875   0.0166667
0.8375   0.0875   0.0166667
0.8625   0.0875   0.0166667
0.8875   0.0875   0.0166667
0.9125   0.0875   0.0166667
0.9375   0.0875   0.0166667
0.9625   0.0875   0.0166667
0.9875   0.0875   0.0166667
0.0125   0.1125   0.0166667
0.0375   0.1125   0.0166667
0.0625   0.1125   0.0166667
0.0875   0.1125   0.0166667
0.1125   0.1125   0.0166667
0.1375   0.1125   0.0166667
0.1625   0.1125   0.0166667
0.1875   0.1125   0.0166667
0.2125   0.1125   0.0166667
0.2375   0.1125   0.0166667
0.2625   0.1125   0.0166667
0.2875   0.1125   0.0166667
0.3125   0.1125   0.0166667
0.3375   0.1125   0.0166667
0.3625   0.1125   0.0166667
0.3875   0.1125   0.0166667
0.4125   0.1125   0.0166667
0.4375   0.1125   0.0166667
0.4625   0.1125   0.0166667
0.4875   0.1125   0.0166667
0.5125   0.1125   0.0166667
0.5375   0.1125   0.0166667
0.5625   0.1125   0.0166667
0.5875   0.1125   0.0166667
0.6125   0.1125   0.0166667
0.6375   0.1125   0.0166667
0.6625   0.1125   0.0166667
0.6875   0.1125   0.0166667
0.7125   0.1125   0.0166667
0.7375   0.1125   0.0166667
0.7625   0.1125   0.0166667
0.7875   0.1125   0.0166667
0.8125   0.1125   0.0166667
0.8375   0.1125   0.0166667
0.8625   0.1125   0.0166667
0.8875   0.1125   0.0166667
0.9125   0.1125   0.0166667
0.9375   0.1125   0.0166667
0.9625   0.1125   0.0166667
0.9875   0.1125   0.0166667
0.0125   0.1375   0.0166667
0.0375   0.1375   0.0166667
0.0625   0.1375   0.0166667
0.0875   0.1375   0.0166667
0.1125   0.1375   0.0166667
0.1375   0.1375   0.0166667
0.1625   0.1375   0.0166667
0.1875   0.1375   0.0166667
0.2125   0.1375   0.0166667
0.2375   0.1375   0.0166667
0.2625   0.1375   0.0166667
0.2875   0.1375   0.0166667
0.3125   0.1375   0.0166667
0.3375   0.1375   0.0166667
0.3625   0.1375   0.0166667
0.3875   0.1375   0.0166667
0.4125   0.1375   0.0166667
0.4375   0.1375   0.0166667
0.4625   0.1375   0.0166667
0.4875   0.1375   0.0166667
0.5125   0.1375   0.0166667
0.5375   0.1375   0.0166667
0.5625   0.1375   0.0166667
0.5875   0.1375   0.0166667
0.6125   0.1375   0.0166667
0.6375   0.1375   0.0166667
0.6625   0.1375   0.0166667
0.6875   0.1375   0.0166667
0.7125   0.1375   0.0166667
0.7375   0.1375   0.0166667
0.7625   0.1375   0.0166667
0.7875   0.1375   0.0166667
0.8125   0.1375   0.0166667
0.8375   0.1375   0.0166667
0.8625   0.1375   0.0166667
0.8875   0.1375   0.0166667
0.9125   0.1375   0.0166667
0.9375   0.1375   0.0166667
0.9625   0.1375   0.0166667
0.9875   0.1375   0.0166667
0.0125   0.1625   0.0166667
0.0375   0.1625   0.0166667
0.0625   0.1625   0.0166667
0.0875   0.1625   0.0166667
0.1125   0.1625   0.0166667
0.1375   0.1625   0.0166667
0.1625   0.1625   0.0166667
0.1875   0.1625   0.0166667
0.2125   0.1625   0.0166667
0.2375   0.1625   0.0166667
0.2625   0.1625   0.0166667
0.2875   0.1625   0.0166667
0.3125   0.1625   0.0166667
0.3375   0.1625   0.0166667
0.3625   0.1625   0.0166667
0.3875   0.1625   0.0166667
0.4125   0.1625   0.0166667
0.4375   0.1625   0.0166667
0.4625   0.1625   0.0166667
0.4875   0.1625   0.0166667
0.5125   0.1625   0.0166667
0.5375   0.1625   0.0166667
0.5625   0.1625   0.0166667
0.5875   0.1625   0.0166667
0.6125   0.1625   0.0166667
0.6375   0.1625   0.0166667
0.6625   0.1625   0.0166667
0.6875   0.1625   0.0166667
0.7125   0.1625   0.0166667
0.7375   0.1625   0.0166667
0.7625   0.1625   0.0166667
0.7875   0.1625   0.0166667
0.8125   0.1625   0.0166667
0.8375   0.1625   0.0166667
0.8625   0.1625   0.0166667
0.8875   0.1625   0.0166667
0.9125   0.1625   0.0166667
0.9375   0.1625   0.0166667
0.9625   0.1625   0.0166667
0.9875   0.1625   0.0166667
0.0125   0.1875   0.0166667
0.0375   0.1875   0.0166667
0.0625   0.1875   0.0166667
0.0875   0.1875   0.0166667
0.1125   0.1875   0.0166667
0.1375   0.1875   0.0166667
0.1625   0.1875   0.0166667
0.1875   0.1875   0.0166667
0.2125   0.1875   0.0166667
0.2375   0.1875   0.0166667
0.2625   0.1875   0.0166667
0.2875   0.1875   0.0166667
0.3125   0.1875   0.0166667
0.3375   0.1875   0.0166667
0.3625   0.1875   0.0166667
0.3875   0.1875   0.0166667
0.4125   0.1875   0.0166667
0.4375   0.1875   0.0166667
0.4625   0.1875   0.0166667
0.4875   0.1875   0.0166667
0.5125   0.1875   0.0166667
0.5375   0.1875   0.0166667
0.5625   0.1875   0.0166667
0.5875   0.1875   0.0166667
0.6125   0.1875   0.0166667
0.6375   0.1875   0.0166667
0.6625   0.1875   0.0166667
0.6875   0.1875   0.0166667
0.7125   0.1875   0.0166667
0.7375   0.1875   0.0166667
0.7625   0.1875   0.0166667
0.7875   0.1875   0.0166667
0.8125   0.1875   0.0166667
0.8375   0.1875   0.0166667
0.8625   0.1875   0.0166667
0.8875   0.1875   0.0166667
0.9125   0.1875   0.0166667
0.9375   0.1875   0.0166667
0.9625   0.1875   0.0166667
0.9875   0.1875   0.0166667
0.0125   0.2125   0.0166667
0.0375   0.2125   0.0166667
0.0625   0.2125   0.0166667
0.0875   0.2125   0.0166667
0.1125   0.2125   0.0166667
0.1375   0.2125   0.0166667
0.1625   0.2125   0.0166667
0.1875   0.2125   0.0166667
0.2125   0.2125   0.0166667
0.2375   0.2125   0.0166667
0.2625   0.2125   0.0166667
0.2875   0.2125   0.0166667
0.3125   0.2125   0.0166667
0.3375   0.2125   0.0166667
0.3625   0.2125   0.0166667
0.3875   0.2125   0.0166667
0.4125   0.2125   0.0166667
0.4375   0.2125   0.0166667
0.4625   0.2125   0.0166667
0.4875   0.2125   0.0166667
0.5125   0.2125   0.0166667
0.5375   0.2125   0.0166667
0.5625   0.2125   0.0166667
0.5875   0.2125   0.0166667
0.6125   0.2125   0.0166667
0.6375   0.2125   0.0166667
0.6625   0.2125   0.0166667
0.6875   0.2125   0.0166667
0.7125   0.2125   0.0166667
0.7375   0.2125   0.0166667
0.7625   0.2125   0.0166667
0.7875   0.2125   0.0166667
[...]
POINT_DATA   48000
VECTORS Velocidad double

0.000767213 2.64854e-07 -2.09461e-08
0.00227782 5.23469e-07 -2.52051e-08
0.00371654 6.3783e-07 -2.72905e-08
0.00503902 6.56612e-07 -2.81404e-08
0.00621011 6.15293e-07 -2.79575e-08
0.00720605 5.38532e-07 -2.66024e-08
0.00801656 4.43783e-07 -2.39163e-08
0.00864536 3.43235e-07 -1.98771e-08
0.00910869 2.45142e-07 -1.46592e-08
0.00943243 1.55414e-07 -8.60667e-09
0.00964583 8.04665e-08 0
0.00977771 3.71046e-08 0
0.00985435 1.38118e-08 0
0.00989615 4.25581e-09 0
0.00991752 4.45067e-09 0
0.0099277 1.32379e-08 0
0.00993206 4.10528e-08 0
0.00993329 1.16598e-07 0
0.00993185 3.10891e-07 0
0.00998084 7.89394e-07 0
0.009947 2.05869e-06 0
0.0098819 3.66258e-06 0
0.00990395 1.92137e-06 0
0.00991026 1.24582e-06 0
0.00991646 9.16892e-07 0
0.00992126 7.01361e-07 0
0.00992447 5.21657e-07 0
0.00992554 3.64315e-07 0
0.00992314 2.26944e-07 0
0.00991372 1.03756e-07 0
0.00989211 -4.65022e-08 0
0.00984159 -1.3214e-07 0
0.0097329 -1.99001e-07 0
0.00952112 -3.34435e-07 0
0.00913224 -5.36712e-07 0
0.00846463 -8.10648e-07 0
0.00740138 -1.15926e-06 0
0.00584594 -1.58312e-06 0
0.00377951 -2.03768e-06 0
0.00131157 -2.41653e-06 0
0.00222206 7.59831e-07 -3.26222e-08
0.00660107 1.49333e-06 -4.22764e-08
0.0107806 1.82249e-06 -4.79403e-08
0.0146345 1.88348e-06 -5.12031e-08
0.0180623 1.77458e-06 -5.23513e-08
0.0209935 1.56329e-06 -5.1044e-08
0.0233945 1.29723e-06 -4.68915e-08
0.0252706 1.00997e-06 -3.9818e-08
0.0266637 7.24947e-07 -3.02262e-08
0.0276441 4.60455e-07 -1.89758e-08
0.0282951 2.38261e-07 0
0.0287012 1.17283e-07 0
0.0289392 5.06597e-08 0
0.0290701 2.1622e-08 0
0.0291375 2.09699e-08 0
0.0291699 5.05998e-08 0
0.029184 1.45692e-07 0
0.0291886 3.9966e-07 0
0.0291864 1.02927e-06 0
0.0292428 2.47943e-06 0
0.0292029 6.0123e-06 0
0.0291155 8.5593e-06 0
0.0291333 7.30889e-06 0
0.029146 6.1475e-06 0
0.0291578 5.02329e-06 0
0.0291671 3.9401e-06 0
0.029173 2.94033e-06 0
0.0291741 2.06052e-06 0
0.0291665 1.3058e-06 0
0.029141 6.55783e-07 0
0.0290799 5.31365e-08 0
0.0289399 -2.81506e-07 0
0.0286414 -5.87054e-07 0
0.0280522 -9.98935e-07 0
0.0269576 -1.5608e-06 0
0.0250544 -2.29101e-06 0
0.0219818 -3.17051e-06 0
0.0174254 -4.107e-06 0
0.0112987 -4.79987e-06 0
0.00392648 -4.45507e-06 0
0.00348339 1.11199e-06 -3.66335e-08
0.0103561 2.19393e-06 -4.88099e-08
0.0169349 2.69082e-06 -5.68791e-08
0.0230278 2.79726e-06 -6.22145e-08
0.0284805 2.65356e-06 -6.49402e-08
0.0331794 2.35545e-06 -6.44744e-08
0.0370634 1.9704e-06 -6.0205e-08
0.0401297 1.54641e-06 -5.19675e-08
0.0424321 1.11833e-06 -4.02887e-08
0.0440706 7.15576e-07 -2.64128e-08
0.0451714 3.75443e-07 -2.82927e-09
0.0458666 1.94665e-07 -2.29448e-10
0.046279 9.36518e-08 1.78212e-09
0.0465083 4.89198e-08 2.46068e-09
0.0466277 5.17924e-08 1.55134e-09
0.0466858 1.1892e-07 -1.44433e-09
0.0467117 3.28268e-07 -1.10255e-08
0.0467209 8.76864e-07 -4.38116e-08
0.0467199 2.20149e-06 -1.77375e-07
0.0467793 5.13236e-06 -6.05712e-07
0.0467378 1.20018e-05 -3.78135e-06
0.0466427 1.46429e-05 -2.96985e-06
0.0466566 1.56736e-05 -1.9283e-06
0.046669 1.43891e-05 -1.18602e-06
0.0466828 1.20912e-05 -7.26676e-07
0.0466942 9.51617e-06 -4.48106e-07
0.0467018 7.07403e-06 -2.7672e-07
0.046703 4.941e-06 -1.67062e-07
0.0466925 3.14659e-06 -8.96199e-08
0.046657 1.65344e-06 -2.10997e-08
0.04657 4.51785e-07 1.23331e-07
0.0463688 -2.27603e-07 1.24948e-07
0.0459353 -8.22889e-07 1.13076e-07
0.0450657 -1.47848e-06 1.13607e-07
0.0434225 -2.29618e-06 1.35643e-07
0.0405115 -3.30106e-06 1.8999e-07
0.0357175 -4.42075e-06 2.99196e-07
0.0284668 -5.4027e-06 5.10746e-07
0.0185464 -5.63634e-06 8.77086e-07
0.00646355 -3.81381e-06 1.49184e-06
0.00449898 1.27221e-06 -3.78376e-08
0.013386 2.53421e-06 -5.12761e-08
0.0219184 3.12804e-06 -6.09217e-08
0.0298571 3.27142e-06 -6.78598e-08
0.0370072 3.12289e-06 -7.19907e-08
0.0432191 2.79071e-06 -7.25082e-08
0.0484033 2.35119e-06 -6.86031e-08
0.052541 1.85911e-06 -6.00072e-08
0.0556848 1.35545e-06 -4.72996e-08
0.0579501 8.76639e-07 -3.19783e-08
0.0594914 4.70162e-07 -7.85023e-09
0.0604776 2.51203e-07 3.74257e-09
0.0610701 1.29364e-07 1.08111e-08
0.0614037 7.94727e-08 1.25626e-08
0.0615795 1.01826e-07 7.34442e-09
0.061666 2.45757e-07 -2.84142e-09
0.0617053 6.72517e-07 -3.05387e-08
0.0617203 1.77342e-06 -1.18851e-07
0.0617214 4.40377e-06 -4.01137e-07
0.0617838 1.01817e-05 -1.25679e-06
0.0617427 2.38724e-05 -4.21188e-06
0.0616428 2.8321e-05 -4.03113e-06
0.0616523 2.89113e-05 -3.64723e-06
0.0616629 2.61363e-05 -2.67769e-06
0.0616769 2.16863e-05 -1.82107e-06
0.0616896 1.685e-05 -1.1946e-06
0.0616985 1.23715e-05 -7.65684e-07
0.0617007 8.55732e-06 -4.72901e-07
0.0616895 5.44101e-06 -2.60985e-07
0.0616503 2.94907e-06 -8.20993e-08
0.0615509 1.12153e-06 1.05105e-07
0.0613166 6.7676e-08 2.27648e-07
0.0608037 -7.58076e-07 2.60334e-07
0.0597565 -1.59437e-06 2.66176e-07
0.0577387 -2.56595e-06 2.85862e-07
0.0540881 -3.69377e-06 3.3666e-07
0.0479411 -4.8639e-06 4.20996e-07
0.0384367 -5.73502e-06 5.02483e-07
0.0251769 -5.59827e-06 4.51552e-07
0.00880299 -3.32439e-06 -2.72456e-07
0.00526588 1.28711e-06 -3.83035e-08
0.0156785 2.57931e-06 -5.27122e-08
0.0257024 3.19969e-06 -6.35645e-08
0.0350675 3.3634e-06 -7.17409e-08
0.0435513 3.22835e-06 -7.69774e-08
0.0509761 2.90229e-06 -7.8309e-08
0.057227 2.46107e-06 -7.47816e-08
0.0622661 1.95949e-06 -6.60374e-08
0.0661369 1.43961e-06 -5.26726e-08
0.0689584 9.40493e-07 -3.63551e-08
0.0709011 5.14106e-07 -1.19575e-08
0.0721591 2.81967e-07 1.73468e-09
0.072924 1.55468e-07 1.13354e-08
0.0733596 1.15593e-07 1.41068e-08
0.0735918 1.85005e-07 8.69204e-09
0.0737073 4.75353e-07 -5.5862e-09
0.0737604 1.29982e-06 -4.65469e-08
0.0737814 3.39678e-06 -1.73626e-07
0.0737848 8.36426e-06 -5.63911e-07
0.0738524 1.92108e-05 -1.65025e-06
0.0738118 4.51194e-05 -5.24464e-06
0.0737046 5.15452e-05 -4.96023e-06
0.0737092 5.04218e-05 -4.51225e-06
0.0737174 4.4149e-05 -3.43941e-06
0.0737311 3.57123e-05 -2.39881e-06
0.0737451 2.71552e-05 -1.59409e-06
0.0737559 1.9574e-05 -1.02526e-06
0.0737599 1.33481e-05 -6.31283e-07
0.0737502 8.44313e-06 -3.45571e-07
0.0737116 4.69867e-06 -1.1015e-07
0.0736096 2.24992e-06 1.26887e-07
0.0733627 7.774e-07 2.85515e-07
0.0728129 -3.0823e-07 3.40622e-07
0.0716699 -1.31879e-06 3.48499e-07
0.0694255 -2.39836e-06 3.59011e-07
0.0652809 -3.56816e-06 3.91982e-07
0.0581502 -4.70431e-06 4.4129e-07
0.0468864 -5.45569e-06 4.62862e-07
0.0308717 -5.15371e-06 3.4799e-07
0.0108286 -2.88122e-06 8.78623e-09
0.00581232 1.20228e-06 -3.87395e-08
0.0173149 2.41626e-06 -5.42737e-08
0.0284122 3.0074e-06 -6.62424e-08
0.0388151 3.17335e-06 -7.54231e-08
0.0482837 3.05943e-06 -8.14774e-08
0.0566202 2.76427e-06 -8.33615e-08
0.0636897 2.35706e-06 -8.00386e-08
0.0694359 1.88794e-06 -7.10933e-08
0.0738903 1.39622e-06 -5.71314e-08
0.0771688 9.19909e-07 -3.99404e-08
0.0794487 5.10756e-07 -1.59954e-08
0.0809403 2.87184e-07 -1.88991e-09
0.0818562 1.72111e-07 8.32957e-09
0.0823831 1.61923e-07 1.17881e-08
0.0826665 3.20393e-07 6.99572e-09
0.0828087 8.65362e-07 -8.56327e-09
0.0828746 2.36495e-06 -5.59961e-08
0.0829011 6.13132e-06 -2.04791e-07
0.0829062 1.4977e-05 -6.59362e-07
0.0829825 3.41495e-05 -1.92232e-06
0.0829409 8.01823e-05 -6.08332e-06
0.0828205 8.7748e-05 -5.81809e-06
0.0828191 8.28418e-05 -5.24197e-06
0.0828247 7.02926e-05 -3.9981e-06
0.0828388 5.53153e-05 -2.8003e-06
0.0828549 4.10523e-05 -1.86701e-06
0.0828686 2.89767e-05 -1.20249e-06
0.0828756 1.94381e-05 -7.40307e-07
0.0828688 1.22184e-05 -4.05314e-07
0.0828338 7.00998e-06 -1.31303e-07
0.0827347 4.21697e-06 1.40334e-07
0.082487 2.21222e-06 3.16574e-07
0.0819263 7.24838e-07 3.76946e-07
0.0807417 -5.67401e-07 3.80641e-07
0.0783758 -1.80834e-06 3.79847e-07
0.0739279 -3.02921e-06 3.94632e-07
0.0661302 -4.12922e-06 4.18719e-07
0.0535805 -4.80394e-06 4.15968e-07
0.0354393 -4.48379e-06 3.20486e-07
0.0124657 -2.43986e-06 8.30198e-08
0.00618107 1.06027e-06 -3.93328e-08
0.0184208 2.13138e-06 -5.62373e-08
0.0302486 2.65733e-06 -6.93286e-08
0.0413645 2.81098e-06 -7.93604e-08
0.0515182 2.71892e-06 -8.59985e-08
0.0604988 2.46632e-06 -8.81883e-08
0.0681565 2.11244e-06 -8.48662e-08
0.0744203 1.70026e-06 -7.55941e-08
0.0793101 1.2641e-06 -6.09942e-08
0.082936 8.38401e-07 -4.29465e-08
0.0854773 4.71442e-07 -1.95377e-08
0.087153 2.72597e-07 -5.45069e-09
0.0881901 1.83355e-07 4.7303e-09
0.0887912 2.25764e-07 8.41751e-09
0.0891168 5.28513e-07 4.40532e-09
0.0892813 1.47318e-06 -1.14149e-08
0.0893578 4.01769e-06 -6.29683e-08
0.0893887 1.03425e-05 -2.28622e-07
0.0893944 2.50826e-05 -7.40068e-07
0.0894849 5.68001e-05 -2.17336e-06
0.0894388 0.000133321 -6.89967e-06
0.0892949 0.000139675 -6.82697e-06
0.0892864 0.000127616 -6.12104e-06
0.0892897 0.000105091 -4.6599e-06
0.0893057 8.04862e-05 -3.26308e-06
0.0893258 5.8286e-05 -2.17625e-06
0.0893442 4.02647e-05 -1.40214e-06
0.0893557 2.656e-05 -8.641e-07
0.089353 1.66213e-05 -4.75927e-07
0.0893236 9.9673e-06 -1.62345e-07
0.0892299 7.75579e-06 1.40107e-07
0.0889864 4.92191e-06 3.31329e-07
0.0884276 2.68197e-06 3.93705e-07
0.087231 8.18192e-07 3.91283e-07
0.0848086 -7.73327e-07 3.7837e-07
0.0801882 -2.15282e-06 3.75857e-07
0.0719651 -3.28087e-06 3.79841e-07
0.058532 -3.94246e-06 3.63915e-07
0.0388543 -3.69789e-06 2.83607e-07
0.0136977 -1.98898e-06 1.06818e-07
0.00641718 8.94798e-07 -4.008e-08
0.0191299 1.79521e-06 -5.85129e-08
0.0314286 2.23873e-06 -7.27189e-08
0.043008 2.37117e-06 -8.34812e-08
0.0536116 2.29843e-06 -9.05234e-08
0.0630206 2.09091e-06 -9.28282e-08
0.0710748 1.79703e-06 -8.93449e-08
0.0776928 1.45182e-06 -7.96409e-08
0.0828852 1.08367e-06 -6.43646e-08
0.0867563 7.22242e-07 -4.54731e-08
0.0894847 4.10553e-07 -2.24427e-08
0.0912942 2.46281e-07 -8.25144e-09
0.0924203 1.94114e-07 1.848e-09
0.0930766 3.1171e-07 5.54355e-09
0.093434 8.175e-07 2.00357e-09
0.0936153 2.31755e-06 -1.43169e-08
0.0936998 6.30118e-06 -7.08693e-08
0.0937334 1.61244e-05 -2.57402e-07
0.0937384 3.888e-05 -8.40548e-07
0.0938513 8.75581e-05 -2.48946e-06
0.0937945 0.000205723 -7.92948e-06
0.0936111 0.000206392 -8.14223e-06
0.0935952 0.000182703 -7.30581e-06
0.0935974 0.000146177 -5.5695e-06
0.093618 0.000109058 -3.90414e-06
0.0936448 7.71209e-05 -2.60531e-06
0.0936704 5.21735e-05 -1.67908e-06
0.0936884 3.38797e-05 -1.03614e-06
0.0936912 2.12218e-05 -5.75447e-07
0.0936691 1.36372e-05 -2.09863e-07
0.0935814 1.41497e-05 1.27534e-07
0.0933423 9.72869e-06 3.37696e-07
0.09279 6.02383e-06 4.04037e-07
0.0915952 3.03946e-06 3.96303e-07
0.0891511 7.48602e-07 3.72227e-07
0.0844391 -9.91658e-07 3.54699e-07
0.0759595 -2.26365e-06 3.42808e-07
0.0619538 -2.98783e-06 3.17631e-07
0.0412351 -2.87877e-06 2.47472e-07
0.0145613 -1.54551e-06 1.05401e-07
0.00656078 7.2934e-07 -4.09264e-08
0.0195615 1.45766e-06 -6.09094e-08
0.0321484 1.81591e-06 -7.61679e-08
0.044013 1.92365e-06 -8.75469e-08
0.0548959 1.86677e-06 -9.48585e-08
0.0645734 1.70149e-06 -9.7149e-08
0.0728791 1.46593e-06 -9.34042e-08
0.0797243 1.18752e-06 -8.32149e-08
0.0851131 8.88815e-07 -6.7262e-08
0.0891452 5.94342e-07 -4.75697e-08
0.0919978 3.41289e-07 -2.47474e-08
0.093897 2.15348e-07 -1.0261e-08
0.0950836 2.06189e-07 -1.19567e-10
0.0957776 4.13241e-07 3.50999e-09
0.0961568 1.16032e-06 1.18927e-12
0.0963497 3.31569e-06 -1.79208e-08
0.0964395 8.98657e-06 -8.31374e-08
0.0964743 2.28917e-05 -3.02745e-07
0.096477 5.49828e-05 -9.95041e-07
0.0966237 0.000123395 -2.96192e-06
0.0965466 0.000291075 -9.43835e-06
0.0963023 0.000279401 -9.99126e-06
0.0962801 0.000239693 -8.97302e-06
0.0962841 0.000186472 -6.85599e-06
0.0963131 0.000135692 -4.81398e-06
0.0963505 9.3834e-05 -3.2147e-06
0.0963861 6.22661e-05 -2.07169e-06
0.0964126 3.99117e-05 -1.27918e-06
0.0964221 2.527e-05 -7.15546e-07
0.0964099 1.80238e-05 -2.77011e-07
0.0963272 2.51832e-05 1.04885e-07
0.0960895 1.74687e-05 3.45145e-07
0.0955446 1.11062e-05 4.18211e-07
0.0943563 6.18711e-06 4.05414e-07
0.0919071 2.72803e-06 3.70735e-07
0.0871498 3.74917e-07 3.40392e-07
0.0785229 -1.17442e-06 3.1621e-07
0.0641663 -2.03335e-06 2.84265e-07
0.0427852 -2.09433e-06 2.2022e-07
0.015126 -1.13386e-06 9.9828e-08
0.00664373 5.78074e-07 -4.18164e-08
0.0198111 1.14912e-06 -6.3254e-08
0.0325651 1.42852e-06 -7.94522e-08
0.0445962 1.51213e-06 -9.13354e-08
0.0556432 1.46784e-06 -9.88163e-08
0.0654797 1.33935e-06 -1.01015e-07
0.0739355 1.15581e-06 -9.69644e-08
0.0809176 9.37974e-07 -8.62863e-08
0.0864257 7.03175e-07 -6.96958e-08
0.0905565 4.71086e-07 -4.92745e-08
0.093486 2.73123e-07 -2.65412e-08
0.0954411 1.83586e-07 -1.16332e-08
0.0966656 2.14808e-07 -1.33329e-09
0.0973834 5.04571e-07 2.17418e-09
0.0977765 1.47214e-06 -1.92193e-09
0.0979766 4.22049e-06 -2.35496e-08
0.0980697 1.14068e-05 -1.0448e-07
0.0981046 2.89646e-05 -3.79379e-07
0.0981037 6.94429e-05 -1.24573e-06
0.0982973 0.000155743 -3.70143e-06
0.0981871 0.000370891 -1.17278e-05
0.0978574 0.000339163 -1.2647e-05
0.0978332 0.000281711 -1.1347e-05
0.0978434 0.000213237 -8.67898e-06
0.0978854 0.000151611 -6.09816e-06
0.0979371 0.000102767 -4.07077e-06
0.0979857 6.70813e-05 -2.61988e-06
0.0980225 4.26447e-05 -1.61586e-06
0.0980396 2.77131e-05 -9.07223e-07
0.0980408 2.28247e-05 -3.65872e-07
0.0979603 4.21013e-05 7.90139e-08
0.097718 2.80966e-05 3.68189e-07
0.0971806 1.76044e-05 4.47807e-07
0.0959999 9.92178e-06 4.25837e-07
0.0935527 4.90248e-06 3.7838e-07
0.0887749 1.76163e-06 3.35806e-07
0.0800677 -1.42745e-07 3.01621e-07
0.0655073 -1.17012e-06 2.64402e-07
0.0437297 -1.40339e-06 2.03489e-07
0.0154712 -7.78204e-07 9.54822e-08
0.00668926 4.47911e-07 -4.27072e-08
0.0199482 8.84401e-07 -6.54299e-08
0.0327943 1.09616e-06 -8.24264e-08
0.0449174 1.15855e-06 -9.47067e-08
0.0560556 1.12416e-06 -1.02284e-07
0.0659811 1.02622e-06 -1.04352e-07
0.0745214 8.86432e-07 -9.99913e-08
0.0815811 7.20109e-07 -8.88557e-08
0.0871573 5.40166e-07 -7.1692e-08
0.0913448 3.61924e-07 -5.06287e-08
0.0943187 2.1119e-07 -2.79146e-08
0.0963063 1.50867e-07 -1.25425e-08
0.0975529 2.08052e-07 -2.04202e-09
0.0982847 5.39925e-07 1.18396e-09
0.0986859 1.60878e-06 -4.5165e-09
0.0988904 4.61581e-06 -3.34834e-08
0.0989852 1.24386e-05 -1.4198e-07
0.0990197 3.14984e-05 -5.07846e-07
0.0990145 7.5501e-05 -1.64794e-06
0.0992674 0.000169751 -4.84421e-06
0.09911 0.000412256 -1.51388e-05
0.0986735 0.000354764 -1.64004e-05
0.0986556 0.000284494 -1.46814e-05
0.0986775 0.000209693 -1.12254e-05
0.0987369 0.00014613 -7.88083e-06
0.0988054 9.75086e-05 -5.24998e-06
0.0988681 6.29302e-05 -3.368e-06
0.0989158 3.999e-05 -2.07042e-06
0.0989405 2.72591e-05 -1.16219e-06
0.0989599 2.68153e-05 -4.77962e-07
0.0988763 6.26551e-05 4.91108e-08
0.0986206 3.89851e-05 4.27992e-07
0.0980922 2.36426e-05 5.02985e-07
0.0969196 1.30867e-05 4.61269e-07
0.0944773 6.61983e-06 3.95542e-07
0.0896917 2.81676e-06 3.39682e-07
0.080943 6.44029e-07 2.96665e-07
0.0662707 -4.98821e-07 2.55042e-07
0.0442697 -8.59077e-07 1.95103e-07
0.015669 -4.99605e-07 9.30758e-08
0.006713 3.40772e-07 -4.35686e-08
0.0200196 6.67574e-07 -6.73768e-08
0.0329139 8.2435e-07 -8.50239e-08
0.0450853 8.69421e-07 -9.76054e-08
0.0562716 8.42836e-07 -1.05228e-07
0.0662441 7.69356e-07 -1.07152e-07
0.0748294 6.64849e-07 -1.02501e-07
0.0819305 5.40318e-07 -9.09574e-08
0.0875433 4.0511e-07 -7.32944e-08
0.0917614 2.707e-07 -5.16761e-08
0.0947594 1.57193e-07 -2.89457e-08
0.0967647 1.14712e-07 -1.31348e-08
0.0980233 1.71518e-07 -2.49108e-09
0.0987627 4.68333e-07 8.08175e-11
0.0991684 1.41122e-06 -8.91523e-09
0.0993753 4.04037e-06 -5.10538e-08
0.0994712 1.08203e-05 -2.05369e-07
0.0995052 2.72243e-05 -7.14736e-07
0.0994962 6.51083e-05 -2.26875e-06
0.0998143 0.000146898 -6.54314e-06
0.0995986 0.000370805 -2.00073e-05
0.0990474 0.000290275 -2.15084e-05
0.0990485 0.00022341 -1.9215e-05
0.099087 0.000160826 -1.46777e-05
0.0991648 0.000110737 -1.02837e-05
0.0992492 7.34729e-05 -6.82553e-06
0.0993248 4.74024e-05 -4.35669e-06
0.099382 3.05615e-05 -2.66433e-06
0.0994128 2.25546e-05 -1.49239e-06
0.0994551 2.7116e-05 -6.22495e-07
0.0993612 7.67723e-05 2.51702e-08
0.0990822 4.34436e-05 5.27737e-07
0.0985662 2.53457e-05 5.78624e-07
0.0974024 1.36601e-05 5.04806e-07
0.0949659 6.88753e-06 4.1608e-07
0.0901787 3.07091e-06 3.46812e-07
0.08141 9.69271e-07 2.96601e-07
0.0666796 -1.17225e-07 2.51758e-07
0.0445598 -5.03802e-07 1.91737e-07
0.0157755 -3.12729e-07 9.17906e-08
0.00672475 2.55603e-07 -4.43811e-08
0.0200551 4.96254e-07 -6.90766e-08
0.0329732 6.10153e-07 -8.72374e-08
0.0451687 6.41846e-07 -1.0004e-07
0.056379 6.21396e-07 -1.07673e-07
0.066375 5.66983e-07 -1.09454e-07
0.0749829 4.89993e-07 -1.04544e-07
0.082105 3.98165e-07 -9.26479e-08
0.0877362 2.9803e-07 -7.45561e-08
0.0919699 1.9766e-07 -5.24554e-08
0.0949801 1.11169e-07 -2.96989e-08
0.0969944 7.36018e-08 -1.3518e-08
0.0982592 9.81212e-08 -2.88919e-09
0.0990025 2.64633e-07 -1.6139e-09
0.0994106 7.99745e-07 -1.64092e-08
0.0996188 2.25755e-06 -7.99701e-08
0.0997153 5.8751e-06 -3.04981e-07
0.0997494 1.42443e-05 -1.02674e-06
0.0997381 3.29452e-05 -3.17082e-06
0.100113 7.28065e-05 -8.92635e-06
0.0998384 0.000200813 -2.65453e-05
0.0991936 0.000121335 -2.80887e-05
0.0992271 8.78503e-05 -2.5079e-05
0.0992821 6.33065e-05 -1.91404e-05
0.0993733 4.50935e-05 -1.33736e-05
0.0994677 3.12516e-05 -8.83298e-06
0.0995508 2.11454e-05 -5.60193e-06
0.0996134 1.46079e-05 -3.4048e-06
0.0996478 1.27089e-05 -1.90714e-06
0.0997136 1.95716e-05 -8.29255e-07
0.0996031 6.55922e-05 -1.20476e-07
0.0992963 3.23778e-05 6.16949e-07
0.0987959 1.82673e-05 6.34764e-07
0.0976402 9.66155e-06 5.29752e-07
0.0952092 4.85528e-06 4.23479e-07
0.0904226 2.17089e-06 3.47104e-07
0.081645 6.91587e-07 2.94729e-07
0.0668861 -7.73808e-08 2.49643e-07
0.0447066 -3.53201e-07 1.90056e-07
0.0158295 -2.20339e-07 9.0544e-08
0.00673028 1.89912e-07 -4.51362e-08
0.0200717 3.64959e-07 -7.05411e-08
0.0330012 4.46517e-07 -8.90981e-08
0.0452079 4.68301e-07 -1.02057e-07
0.0564296 4.52641e-07 -1.09678e-07
0.0664368 4.12729e-07 -1.11326e-07
0.0750555 3.56616e-07 -1.06191e-07
0.0821875 2.89635e-07 -9.39932e-08
0.0878276 2.16159e-07 -7.55308e-08
0.0920687 1.41313e-07 -5.29959e-08
0.0950848 7.31775e-08 -3.02206e-08
0.0971034 3.02352e-08 -1.37543e-08
0.0983711 -2.13447e-09 -3.36491e-09
0.0991164 -3.89522e-08 -4.2108e-09
0.0995256 -1.27045e-07 -2.77881e-08
0.0997345 -4.47514e-07 -1.22244e-07
0.0998315 -1.63422e-06 -4.45612e-07
0.099866 -5.62977e-06 -1.454e-06
0.099855 -1.75249e-05 -4.3712e-06
0.100251 -4.89763e-05 -1.20077e-05
0.0999426 -0.000121659 -3.46586e-05
0.0992723 -0.000136147 -3.59598e-05
0.0993402 -9.99008e-05 -3.21396e-05
0.0994004 -6.44788e-05 -2.4511e-05
0.0994913 -3.81239e-05 -1.70704e-05
0.099584 -2.11856e-05 -1.12117e-05
0.0996659 -1.11302e-05 -7.06081e-06
0.099728 -5.34056e-06 -4.2655e-06
0.099762 -1.59159e-06 -2.39987e-06
0.0998417 1.91766e-06 -1.1291e-06
0.0997169 1.24144e-05 -5.21556e-07
0.0993919 1.95699e-06 5.98781e-07
0.0989044 1.5351e-06 5.90554e-07
0.0977532 1.07823e-06 4.85159e-07
0.0953249 6.49173e-07 3.89675e-07
0.0905388 2.22385e-07 3.25848e-07
0.081757 -1.19741e-07 2.83052e-07
0.0669847 -3.34922e-07 2.43911e-07
0.0447769 -3.78706e-07 1.87233e-07
0.0158553 -2.08337e-07 8.84582e-08
0.00673275 1.40835e-07 -4.58362e-08
0.0200792 2.67387e-07 -7.18027e-08
0.0330137 3.25275e-07 -9.0661e-08
0.0452255 3.3996e-07 -1.03728e-07
0.0564522 3.27963e-07 -1.11322e-07
0.0664645 2.9879e-07 -1.1285e-07
0.075088 2.58086e-07 -1.07519e-07
0.0822245 2.0947e-07 -9.50622e-08
0.0878686 1.55738e-07 -7.62713e-08
0.0921131 9.96695e-08 -5.33217e-08
0.0951319 4.40397e-08 -3.05316e-08
0.0971524 -7.95468e-09 -1.38461e-08
0.0984215 -1.01297e-07 -3.89619e-09
0.0991676 -3.49649e-07 -7.56197e-09
0.0995773 -1.07858e-06 -4.22708e-08
0.0997864 -3.20697e-06 -1.74757e-07
0.0998837 -9.23729e-06 -6.16355e-07
0.0999189 -2.5679e-05 -1.96227e-06
0.0999109 -6.9408e-05 -5.77294e-06
0.100252 -0.00017806 -1.55425e-05
0.0999785 -0.000545317 -4.37439e-05
0.0994107 -0.000389053 -4.44382e-05
0.0994779 -0.000275317 -3.97766e-05
0.0995172 -0.000181726 -3.02992e-05
0.0995881 -0.000114831 -2.10266e-05
0.099665 -7.00381e-05 -1.37345e-05
0.0997359 -4.16446e-05 -8.59399e-06
0.0997909 -2.4741e-05 -5.16734e-06
0.0998207 -1.69164e-05 -2.93824e-06
0.0998907 -2.04956e-05 -1.54845e-06
0.0997681 -7.27954e-05 -1.40526e-06
0.0994538 -3.50384e-05 3.14773e-07
0.0989644 -1.80333e-05 3.30876e-07