# vtk DataFile Version 2.0
Presion
ASCII

DATASET STRUCTURED_GRID
DIMENSIONS   40   40   30

POINTS   48000   double
0.0125   0.0125   0.0166667
0.0375   0.0125   0.0166667
0.0625   0.0125   0.0166667
0.0875   0.0125   0.0166667
0.1125   0.0125   0.0166667
0.1375   0.0125   0.0166667
0.1625   0.0125   0.0166667
0.1875   0.0125   0.0166667
0.2125   0.0125   0.0166667
0.2375   0.0125   0.0166667
0.2625   0.0125   0.0166667
0.2875   0.0125   0.0166667
0.3125   0.0125   0.0166667
0.3375   0.0125   0.0166667
0.3625   0.0125   0.0166667
0.3875   0.0125   0.0166667
0.4125   0.0125   0.0166667
0.4375   0.0125   0.0166667
0.4625   0.0125   0.0166667
0.4875   0.0125   0.0166667
0.5125   0.0125   0.0166667
0.5375   0.0125   0.0166667
0.5625   0.0125   0.0166667
0.5875   0.0125   0.0166667
0.6125   0.0125   0.0166667
0.6375   0.0125   0.0166667
0.6625   0.0125   0.0166667
0.6875   0.0125   0.0166667
0.7125   0.0125   0.0166667
0.7375   0.0125   0.0166667
0.7625   0.0125   0.0166667
0.7875   0.0125   0.0166667
0.8125   0.0125   0.0166667
0.8375   0.0125   0.0166667
0.8625   0.0125   0.0166667
0.8875   0.0125   0.0166667
0.9125   0.0125   0.0166667
0.9375   0.0125   0.0166667
0.9625   0.0125   0.0166667
0.9875   0.0125   0.0166667
0.0125   0.0375   0.0166667
0.0375   0.0375   0.0166667
0.0625   0.0375   0.0166667
0.0875   0.0375   0.0166667
0.1125   0.0375   0.0166667
0.1375   0.0375   0.0166667
0.1625   0.0375   0.0166667
0.1875   0.0375   0.0166667
0.2125   0.0375   0.0166667
0.2375   0.0375   0.0166667
0.2625   0.0375   0.0166667
0.2875   0.0375   0.0166667
0.3125   0.0375   0.0166667
0.3375   0.0375   0.0166667
0.3625   0.0375   0.0166667
0.3875   0.0375   0.0166667
0.4125   0.0375   0.0166667
0.4375   0.0375   0.0166667
0.4625   0.0375   0.0166667
0.4875   0.0375   0.0166667
0.5125   0.0375   0.0166667
0.5375   0.0375   0.0166667
0.5625   0.0375   0.0166667
0.5875   0.0375   0.0166667
0.6125   0.0375   0.0166667
0.6375   0.0375   0.0166667
0.6625   0.0375   0.0166667
0.6875   0.0375   0.0166667
0.7125   0.0375   0.0166667
0.7375   0.0375   0.0166667
0.7625   0.0375   0.0166667
0.7875   0.0375   0.0166667
0.8125   0.0375   0.0166667
0.8375   0.0375   0.0166667
0.8625   0.0375   0.0166667
0.8875   0.0375   0.0166667
0.9125   0.0375   0.0166667
0.9375   0.0375   0.0166667
0.9625   0.0375   0.0166667
0.9875   0.0375   0.0166667
0.0125   0.0625   0.0166667
0.0375   0.0625   0.0166667
0.0625   0.0625   0.0166667
0.0875   0.0625   0.0166667
0.1125   0.0625   0.0166667
0.1375   0.0625   0.0166667
0.1625   0.0625   0.0166667
0.1875   0.0625   0.0166667
0.2125   0.0625   0.0166667
0.2375   0.0625   0.0166667
0.2625   0.0625   0.0166667
0.2875   0.0625   0.0166667
0.3125   0.0625   0.0166667
0.3375   0.0625   0.0166667
0.3625   0.0625   0.0166667
0.3875   0.0625   0.0166667
0.4125   0.0625   0.0166667
0.4375   0.0625   0.0166667
0.4625   0.0625   0.0166667
0.4875   0.0625   0.0166667
0.5125   0.0625   0.0166667
0.5375   0.0625   0.0166667
0.5625   0.0625   0.0166667
0.5875   0.0625   0.0166667
0.6125   0.0625   0.0166667
0.6375   0.0625   0.0166667
0.6625   0.0625   0.0166667
0.6875   0.0625   0.0166667
0.7125   0.0625   0.0166667
0.7375   0.0625   0.0166667
0.7625   0.0625   0.0166667
0.7875   0.0625   0.0166667
0.8125   0.0625   0.0166667
0.8375   0.0625   0.0166667
0.8625   0.0625   0.0166667
0.8875   0.0625   0.0166667
0.9125   0.0625   0.0166667
0.9375   0.0625   0.0166667
0.9625   0.0625   0.0166667
0.9875   0.0625   0.0166667
0.0125   0.0875   0.0166667
0.0375   0.0875   0.0166667
0.0625   0.0875   0.0166667
0.0875   0.0875   0.0166667
0.1125   0.0875   0.0166667
0.1375   0.0875   0.0166667
0.1625   0.0875   0.0166667
0.1875   0.0875   0.0166667
0.2125   0.0875   0.0166667
0.2375   0.0875   0.0166667
0.2625   0.0875   0.0166667
0.2875   0.0875   0.0166667
0.3125   0.0875   0.0166667
0.3375   0.0875   0.0166667
0.3625   0.0875   0.0166667
0.3875   0.0875   0.0166667
0.4125   0.0875   0.0166667
0.4375   0.0875   0.0166667
0.4625   0.0875   0.0166667
0.4875   0.0875   0.0166667
0.5125   0.0875   0.0166667
0.5375   0.0875   0.0166667
0.5625   0.0875   0.0166667
0.5875   0.0875   0.0166667
0.6125   0.0875   0.0166667
0.6375   0.0875   0.0166667
0.6625   0.0875   0.0166667
0.6875   0.0875   0.0166667
0.7125   0.0875   0.0166667
0.7375   0.0875   0.0166667
0.7625   0.0875   0.0166667
0.7875   0.0875   0.0166667
0.8125   0.0875   0.0166667
0.8375   0.0875   0.0166667
0.8625   0.0875   0.0166667
0.8875   0.0875   0.0166667
0.9125   0.0875   0.0166667
0.9375   0.0875   0.0166667
0.9625   0.0875   0.0166667
0.9875   0.0875   0.0166667
0.0125   0.1125   0.0166667
0.0375   0.1125   0.0166667
0.0625   0.1125   0.0166667
0.0875   0.1125   0.0166667
0.1125   0.1125   0.0166667
0.1375   0.1125   0.0166667
0.1625   0.1125   0.0166667
0.1875   0.1125   0.0166667
0.2125   0.1125   0.0166667
0.2375   0.1125   0.0166667
0.2625   0.1125   0.0166667
0.2875   0.1125   0.0166667
0.3125   0.1125   0.0166667
0.3375   0.1125   0.0166667
0.3625   0.1125   0.0166667
0.3875   0.1125   0.0166667
0.4125   0.1125   0.0166667
0.4375   0.1125   0.0166667
0.4625   0.1125   0.0166667
0.4875   0.1125   0.0166667
0.5125   0.1125   0.0166667
0.5375   0.1125   0.0166667
0.5625   0.1125   0.0166667
0.5875   0.1125   0.0166667
0.6125   0.1125   0.0166667
0.6375   0.1125   0.0166667
0.6625   0.1125   0.0166667
0.6875   0.1125   0.0166667
0.7125   0.1125   0.0166667
0.7375   0.1125   0.0166667
0.7625   0.1125   0.0166667
0.7875   0.1125   0.0166667
0.8125   0.1125   0.0166667
0.8375   0.1125   0.0166667
0.8625   0.1125   0.0166667
0.8875   0.1125   0.0166667
0.9125   0.1125   0.0166667
0.9375   0.1125   0.0166667
0.9625   0.1125   0.0166667
0.9875   0.1125   0.0166667
0.0125   0.1375   0.0166667
0.0375   0.1375   0.0166667
0.0625   0.1375   0.0166667
0.0875   0.1375   0.0166667
0.1125   0.1375   0.0166667
0.1375   0.1375   0.0166667
0.1625   0.1375   0.0166667
0.1875   0.1375   0.0166667
0.2125   0.1375   0.0166667
0.2375   0.1375   0.0166667
0.2625   0.1375   0.0166667
0.2875   0.1375   0.0166667
0.3125   0.1375   0.0166667
0.3375   0.1375   0.0166667
0.3625   0.1375   0.0166667
0.3875   0.1375   0.0166667
0.4125   0.1375   0.0166667
0.4375   0.1375   0.0166667
0.4625   0.1375   0.0166667
0.4875   0.1375   0.0166667
0.5125   0.1375   0.0166667
0.5375   0.1375   0.0166667
0.5625   0.1375   0.0166667
0.5875   0.1375   0.0166667
0.6125   0.1375   0.0166667
0.6375   0.1375   0.0166667
0.6625   0.1375   0.0166667
0.6875   0.1375   0.0166667
0.7125   0.1375   0.0166667
0.7375   0.1375   0.0166667
0.7625   0.1375   0.0166667
0.7875   0.1375   0.0166667
0.8125   0.1375   0.0166667
0.8375   0.1375   0.0166667
0.8625   0.1375   0.0166667
0.8875   0.1375   0.0166667
0.9125   0.1375   0.0166667
0.9375   0.1375   0.0166667
0.9625   0.1375   0.0166667
0.9875   0.1375   0.0166667
0.0125   0.1625   0.0166667
0.0375   0.1625   0.0166667
0.0625   0.1625   0.0166667
0.0875   0.1625   0.0166667
0.1125   0.1625   0.0166667
0.1375   0.1625   0.0166667
0.1625   0.1625   0.0166667
0.1875   0.1625   0.0166667
0.2125   0.1625   0.0166667
0.2375   0.1625   0.0166667
0.2625   0.1625   0.0166667
0.2875   0.1625   0.0166667
0.3125   0.1625   0.0166667
0.3375   0.1625   0.0166667
0.3625   0.1625   0.0166667
0.3875   0.1625   0.0166667
0.4125   0.1625   0.0166667
0.4375   0.1625   0.0166667
0.4625   0.1625   0.0166667
0.4875   0.1625   0.0166667
0.5125   0.1625   0.0166667
0.5375   0.1625   0.0166667
0.5625   0.1625   0.0166667
0.5875   0.1625   0.0166667
0.6125   0.1625   0.0166667
0.6375   0.1625   0.0166667
0.6625   0.1625   0.0166667
0.6875   0.1625   0.0166667
0.7125   0.1625   0.0166667
0.7375   0.1625   0.0166667
0.7625   0.1625   0.0166667
0.7875   0.1625   0.0166667
0.8125   0.1625   0.0166667
0.8375   0.1625   0.0166667
0.8625   0.1625   0.0166667
0.8875   0.1625   0.0166667
0.9125   0.1625   0.0166667
0.9375   0.1625   0.0166667
0.9625   0.1625   0.0166667
0.9875   0.1625   0.0166667
0.0125   0.1875   0.0166667
0.0375   0.1875   0.0166667
0.0625   0.1875   0.0166667
0.0875   0.1875   0.0166667
0.1125   0.1875   0.0166667
0.1375   0.1875   0.0166667
0.1625   0.1875   0.0166667
0.1875   0.1875   0.0166667
0.2125   0.1875   0.0166667
0.2375   0.1875   0.0166667
0.2625   0.1875   0.0166667
0.2875   0.1875   0.0166667
0.3125   0.1875   0.0166667
0.3375   0.1875   0.0166667
0.3625   0.1875   0.0166667
0.3875   0.1875   0.0166667
0.4125   0.1875   0.0166667
0.4375   0.1875   0.0166667
0.4625   0.1875   0.0166667
0.4875   0.1875   0.0166667
0.5125   0.1875   0.0166667
0.5375   0.1875   0.0166667
0.5625   0.1875   0.0166667
0.5875   0.1875   0.0166667
0.6125   0.1875   0.0166667
0.6375   0.1875   0.0166667
0.6625   0.1875   0.0166667
0.6875   0.1875   0.0166667
0.7125   0.1875   0.0166667
0.7375   0.1875   0.0166667
0.7625   0.1875   0.0166667
0.7875   0.1875   0.0166667
0.8125   0.1875   0.0166667
0.8375   0.1875   0.0166667
0.8625   0.1875   0.0166667
0.8875   0.1875   0.0166667
0.9125   0.1875   0.0166667
0.9375   0.1875   0.0166667
0.9625   0.1875   0.0166667
0.9875   0.1875   0.0166667
0.0125   0.2125   0.0166667
0.0375   0.2125   0.0166667
0.0625   0.2125   0.0166667
0.0875   0.2125   0.0166667
0.1125   0.2125   0.0166667
0.1375   0.2125   0.0166667
0.1625   0.2125   0.0166667
0.1875   0.2125   0.0166667
0.2125   0.2125   0.0166667
0.2375   0.2125   0.0166667
0.2625   0.2125   0.0166667
0.2875   0.2125   0.0166667
0.3125   0.2125   0.0166667
0.3375   0.2125   0.0166667
0.3625   0.2125   0.0166667
0.3875   0.2125   0.0166667
0.4125   0.2125   0.0166667
0.4375   0.2125   0.0166667
0.4625   0.2125   0.0166667
0.4875   0.2125   0.0166667
0.5125   0.2125   0.0166667
0.5375   0.2125   0.0166667
0.5625   0.2125   0.0166667
0.5875   0.2125   0.0166667
0.6125   0.2125   0.0166667
0.6375   0.2125   0.0166667
0.6625   0.2125   0.0166667
0.6875   0.2125   0.0166667
0.7125   0.2125   0.0166667
0.7375   0.2125   0.0166667
0.7625   0.2125   0.0166667
0.7875   0.2125   0.0166667
[...]
POINT_DATA   48000
SCALARS Presion double
LOOKUP_TABLE   Presion

0 0 0 0 0 0 0 0 0 0 0 0 0 0 0 0 0 0 0 0 0 0 0 0 0 0 0 0 0 0 0 -0.00115117 -0.000941146 -0.000448644 -0.000427222 -0.000173656 -3.55233e-05 -1.01841e-05 -1.19811e-06 0 0 0 0 0 0 0 0 0 0 0 0 0 0 0 0 0 0 0 0 0 0 0 0 0 0 0 0 0 0 0 0 -0.00115122 -0.00094116 -0.000559456 -0.000427222 -0.000305843 -3.55255e-05 -1.01844e-05 -1.6575e-06 0 0 0 0 0 0 0 0 0 0 0 0 0 0 0 0 0 0 0 0 0 0 0 0 0 0 0 0 0 0 0 0 -0.00115123 -0.000941237 -0.000625579 -0.000427222 -0.000574545 -3.5526e-05 -1.0186e-05 -1.97655e-06 0 0 0 0 0 0 0 0 0 0 0 0 0 0 0 0 0 0 0 0 0 0 0 0 0 0 0 0 0 0 0 0 -0.00115123 -0.000941597 -0.000659279 -0.000427222 -0.000966024 -3.55262e-05 -1.01941e-05 -2.15146e-06 0 0 0 0 0 0 0 0 0 0 0 0 0 0 0 0 0 0 0 0 0 0 0 0 0 0 0 0 0 0 0 0 -0.00115123 -0.000943115 -0.000674057 -0.000427222 -0.00123294 -3.55262e-05 -1.02352e-05 -2.22921e-06 0 0 0 0 0 0 0 0 0 0 0 0 0 0 0 0 0 0 0 0 0 0 0 0 0 0 0 0 0 0 0 0 -0.00115123 -0.000948826 -0.000679674 -0.000427222 -0.000781382 -3.55262e-05 -1.04346e-05 -2.25804e-06 0 0 0 0 0 0 0 0 0 0 0 0 0 0 0 0 0 0 0 0 0 0 0 0 0 0 0 0 0 0 0 0 -0.00115123 -0.000967774 -0.000681538 -0.000427222 -1.10999e-05 -3.55263e-05 -1.13374e-05 -2.26721e-06 0 0 0 0 0 0 0 0 0 0 0 0 0 0 0 0 0 0 0 0 0 0 0 0 0 0 0 0 0 0 0 0 -0.00115123 -0.00102275 -0.000682082 -0.000427222 -3.44559e-05 -3.55263e-05 -1.51074e-05 -2.26981e-06 0 0 0 0 0 0 0 0 0 0 0 0 0 0 0 0 0 0 0 0 0 0 0 0 0 0 0 0 0 0 0 0 -0.00115123 -0.00116108 -0.000682223 -0.000427224 -5.72336e-05 -3.55263e-05 -2.92453e-05 -2.2705e-06 0 0 0 0 0 0 0 0 0 0 0 0 0 0 0 0 0 0 0 0 0 0 0 0 0 0 0 0 0 0 0 0 -0.00115123 -0.00146168 -0.000682256 -0.000427233 -7.56603e-05 -3.55263e-05 -7.4864e-05 -2.27069e-06 0 0 0 0 0 0 0 0 0 0 0 0 0 0 0 0 0 0 0 0 0 0 0 0 0 0 0 0 0 0 0 0 -0.00115123 -0.00202783 -0.000682263 -0.000427279 -8.77507e-05 -3.55263e-05 -0.000192875 -2.27076e-06 0 0 0 0 0 0 0 0 0 0 0 0 0 0 0 0 0 0 0 0 0 0 0 0 0 0 0 0 0 0 0 0 -0.00115123 -0.00295984 -0.000682265 -0.000427508 -9.4242e-05 -3.55263e-05 -0.000407213 -2.27079e-06 0 0 0 0 0 0 0 0 0 0 0 0 0 0 0 0 0 0 0 0 0 0 0 0 0 0 0 0 0 0 0 0 -0.00115123 -0.00422083 -0.000682265 -0.000428519 -9.71434e-05 -3.55263e-05 -0.000589336 -2.27081e-06 0 0 0 0 0 0 0 0 0 0 0 0 0 0 0 0 0 0 0 0 0 0 0 0 0 0 0 0 0 0 0 0 -0.00115123 -0.00457032 -0.000682265 -0.000432504 -9.82422e-05 -3.55263e-05 -0.000371712 -2.27082e-06 0 0 0 0 0 0 0 0 0 0 0 0 0 0 0 0 0 0 0 0 0 0 0 0 0 0 0 0 0 0 0 0 -0.00115123 -0.000148996 -0.000682265 -0.000446365 -9.86004e-05 -3.55263e-05 -9.80792e-07 -2.27082e-06 0 0 0 0 0 0 0 0 0 0 0 0 0 0 0 0 0 0 0 0 0 0 0 0 0 0 0 0 0 0 0 0 -0.00115123 -0.000424251 -0.000682265 -0.000488371 -9.87024e-05 -3.55263e-05 -3.16155e-06 -2.27083e-06 0 0 0 0 0 0 0 0 0 0 0 0 0 0 0 0 0 0 0 0 0 0 0 0 0 0 0 0 0 0 0 0 -0.00115123 -0.000640906 -0.000682265 -0.000597619 -9.87281e-05 -3.55265e-05 -5.48628e-06 -2.27083e-06 0 0 0 0 0 0 0 0 0 0 0 0 0 0 0 0 0 0 0 0 0 0 0 0 0 0 0 0 0 0 0 0 -0.00115125 -0.000786583 -0.000682265 -0.000836407 -9.87339e-05 -3.55274e-05 -7.50983e-06 -2.27083e-06 0 0 0 0 0 0 0 0 0 0 0 0 0 0 0 0 0 0 0 0 0 0 0 0 0 0 0 0 0 0 0 0 -0.00115133 -0.000870755 -0.000682265 -0.00126187 -9.87352e-05 -3.55326e-05 -8.89928e-06 -2.27083e-06 0 0 0 0 0 0 0 0 0 0 0 0 0 0 0 0 0 0 0 0 0 0 0 0 0 0 0 0 0 0 0 0 -0.0011517 -0.000912795 -0.000682265 -0.00184319 -9.87354e-05 -3.55597e-05 -9.66021e-06 -2.27083e-06 0 0 0 0 0 0 0 0 0 0 0 0 0 0 0 0 0 0 0 0 0 0 0 0 0 0 0 0 0 0 0 0 -0.00115327 -0.000931035 -0.000682265 -0.00229891 -9.87355e-05 -3.56926e-05 -1.00005e-05 -2.27083e-06 0 0 0 0 0 0 0 0 0 0 0 0 0 0 0 0 0 0 0 0 0 0 0 0 0 0 0 0 0 0 0 0 -0.00115912 -0.000937944 -0.000682265 -0.00169025 -9.87355e-05 -3.62954e-05 -1.01279e-05 -2.27083e-06 0 0 0 0 0 0 0 0 0 0 0 0 0 0 0 0 0 0 0 0 0 0 0 0 0 0 0 0 0 0 0 0 -0.00117848 -0.000940241 -0.000682265 -5.75386e-05 -9.87355e-05 -3.87902e-05 -1.01687e-05 -2.27083e-06 0 0 0 0 0 0 0 0 0 0 0 0 0 0 0 0 0 0 0 0 0 0 0 0 0 0 0 0 0 0 0 0 -0.00123492 -0.000940914 -0.000682265 -0.000170685 -9.87356e-05 -4.80889e-05 -1.01801e-05 -2.27084e-06 0 0 0 0 0 0 0 0 0 0 0 0 0 0 0 0 0 0 0 0 0 0 0 0 0 0 0 0 0 0 0 0 -0.00137942 -0.00094109 -0.000682268 -0.000269472 -9.87356e-05 -7.86745e-05 -1.0183e-05 -2.27087e-06 0 0 0 0 0 0 0 0 0 0 0 0 0 0 0 0 0 0 0 0 0 0 0 0 0 0 0 0 0 0 0 0 -0.00170574 -0.000941131 -0.00068228 -0.000342241 -9.87356e-05 -0.000164425 -1.01837e-05 -2.27096e-06 0 0 0 0 0 0 0 0 0 0 0 0 0 0 0 0 0 0 0 0 0 0 0 0 0 0 0 0 0 0 0 0 -0.00236846 -0.00094114 -0.000682345 -0.000387086 -9.87356e-05 -0.000356883 -1.01839e-05 -2.27133e-06 0 0 0 0 0 0 0 0 0 0 0 0 0 0 0 0 0 0 0 0 0 0 0 0 0 0 0 0 0 0 0 0 -0.00362191 -0.000941142 -0.000682654 -0.000410362 -9.87356e-05 -0.000661812 -1.01839e-05 -2.27313e-06 0 0 0 0 0 0 0 0 0 0 0 0 0 0 0 0 0 0 0 0 0 0 0 0 0 0 0 0 0 0 0 0 -0.00584522 -0.000941142 -0.000683986 -0.000420645 -9.87356e-05 -0.000882895 -1.0184e-05 -2.28188e-06 0 0 0 0 0 0 0 0 0 0 0 0 0 0 0 0 0 0 0 0 0 0 0 0 0 0 0 0 0 0 0 0 -0.00842572 -0.000941142 -0.000689087 -0.000424553 -9.87356e-05 -0.000547107 -1.0184e-05 -2.32962e-06 0 0 0 0 0 0 0 0 0 0 0 0 0 0 0 0 0 0 0 0 0 0 0 0 0 0 0 0 0 0 0 0 -0.000192037 -0.000941142 -0.000706293 -0.000425843 -9.87356e-05 -3.66599e-06 -1.0184e-05 -2.56703e-06 0 0 0 0 0 0 0 0 0 0 0 0 0 0 0 0 0 0 0 0 0 0 0 0 0 0 0 0 0 0 0 0 -0.000539478 -0.000941142 -0.000756828 -0.000426217 -9.87356e-05 -1.16177e-05 -1.0184e-05 -3.7532e-06 0 0 0 0 0 0 0 0 0 0 0 0 0 0 0 0 0 0 0 0 0 0 0 0 0 0 0 0 0 0 0 0 -0.000803227 -0.000941142 -0.000884476 -0.000426313 -9.87361e-05 -1.97652e-05 -1.0184e-05 -8.97748e-06 0 0 0 0 0 0 0 0 0 0 0 0 0 0 0 0 0 0 0 0 0 0 0 0 0 0 0 0 0 0 0 0 -0.000974657 -0.000941142 -0.00115805 -0.000426335 -9.87385e-05 -2.66341e-05 -1.0184e-05 -2.92798e-05 0 0 0 0 0 0 0 0 0 0 0 0 0 0 0 0 0 0 0 0 0 0 0 0 0 0 0 0 0 0 0 0 -0.00107118 -0.000941142 -0.00164868 -0.00042634 -9.87516e-05 -3.12633e-05 -1.0184e-05 -9.13662e-05 0 0 0 0 0 0 0 0 0 0 0 0 0 0 0 0 0 0 0 0 0 0 0 0 0 0 0 0 0 0 0 0 -0.00111856 -0.000941142 -0.00236656 -0.000426341 -9.88197e-05 -3.37819e-05 -1.0184e-05 -0.00022498 0 0 0 0 0 0 0 0 0 0 0 0 0 0 0 0 0 0 0 0 0 0 0 0 0 0 0 0 0 0 0 0 -0.00113892 -0.000941142 -0.00309318 -0.000426341 -9.91418e-05 -3.4911e-05 -1.0184e-05 -0.000362716 0 0 0 0 0 0 0 0 0 0 0 0 0 0 0 0 0 0 0 0 0 0 0 0 0 0 0 0 0 0 0 0 -0.00114659 -0.000941142 -0.00266432 -0.000426341 -0.000100527 -3.53369e-05 -1.0184e-05 -0.000240592 0 0 0 0 0 0 0 0 0 0 0 0 0 0 0 0 0 0 0 0 0 0 0 0 0 0 0 0 0 0 0 0 -0.00114914 -0.000941142 -0.000100257 -0.000426341 -0.000105859 -3.54747e-05 -1.0184e-05 -2.09037e-07 0 0 0 0 0 0 0 0 0 0 0 0 0 0 0 0 0 0 0 0 0 0 0 0 0 0 0 0 0 0 0 0 -0.00114989 -0.000941143 -0.000290971 -0.000426341 -0.000124079 -3.55136e-05 -1.0184e-05 -6.79702e-07 0 0 0 0 0 0 0 0 0 0 0 0 0 0 0 0 0 0 0 0 0 0 0 0 0 0 0 0 0 0 0 0 -0.00115014 -0.000943115 -0.000674057 -0.000426341 -0.00124501 -3.55262e-05 -1.02352e-05 -2.21597e-06 0 0 0 0 0 0 0 0 0 0 0 0 0 0 0 0 0 0 0 0 0 0 0 0 0 0 0 0 0 0 0 0 -0.00115014 -0.000948826 -0.000679674 -0.000426341 -0.000785527 -3.55262e-05 -1.04346e-05 -2.24444e-06 0 0 0 0 0 0 0 0 0 0 0 0 0 0 0 0 0 0 0 0 0 0 0 0 0 0 0 0 0 0 0 0 -0.00115014 -0.000967774 -0.000681538 -0.000426341 -1.11248e-05 -3.55263e-05 -1.13374e-05 -2.25349e-06 0 0 0 0 0 0 0 0 0 0 0 0 0 0 0 0 0 0 0 0 0 0 0 0 0 0 0 0 0 0 0 0 -0.00115014 -0.00102275 -0.000682082 -0.000426342 -3.45388e-05 -3.55263e-05 -1.51074e-05 -2.25605e-06 0 0 0 0 0 0 0 0 0 0 0 0 0 0 0 0 0 0 0 0 0 0 0 0 0 0 0 0 0 0 0 0 -0.00115014 -0.00116108 -0.000682223 -0.000426343 -5.73954e-05 -3.55263e-05 -2.92453e-05 -2.25673e-06 0 0 0 0 0 0 0 0 0 0 0 0 0 0 0 0 0 0 0 0 0 0 0 0 0 0 0 0 0 0 0 0 -0.00115014 -0.00146168 -0.000682256 -0.000426352 -7.59145e-05 -3.55263e-05 -7.48641e-05 -2.25692e-06 0 0 0 0 0 0 0 0 0 0 0 0 0 0 0 0 0 0 0 0 0 0 0 0 0 0 0 0 0 0 0 0 -0.00115014 -0.00202783 -0.000682263 -0.000426398 -8.80869e-05 -3.55263e-05 -0.000192875 -2.25699e-06 0 0 0 0 0 0 0 0 0 0 0 0 0 0 0 0 0 0 0 0 0 0 0 0 0 0 0 0 0 0 0 0 -0.00115014 -0.00295984 -0.000682265 -0.000426624 -9.46335e-05 -3.55263e-05 -0.000407214 -2.25702e-06 0 0 0 0 0 0 0 0 0 0 0 0 0 0 0 0 0 0 0 0 0 0 0 0 0 0 0 0 0 0 0 0 -0.00115014 -0.00422083 -0.000682265 -0.000427622 -9.75641e-05 -3.55263e-05 -0.000589332 -2.25704e-06 0 0 0 0 0 0 0 0 0 0 0 0 0 0 0 0 0 0 0 0 0 0 0 0 0 0 0 0 0 0 0 0 -0.00115014 -0.00457032 -0.000682265 -0.00043156 -9.86753e-05 -3.55263e-05 -0.000371721 -2.25705e-06 0 0 0 0 0 0 0 0 0 0 0 0 0 0 0 0 0 0 0 0 0 0 0 0 0 0 0 0 0 0 0 0 -0.00115014 -0.000148996 -0.000682265 -0.000445269 -9.90379e-05 -3.55263e-05 -9.80792e-07 -2.25706e-06 0 0 0 0 0 0 0 0 0 0 0 0 0 0 0 0 0 0 0 0 0 0 0 0 0 0 0 0 0 0 0 0 -0.00115014 -0.000424251 -0.000682265 -0.000486878 -9.91411e-05 -3.55263e-05 -3.16155e-06 -2.25706e-06 0 0 0 0 0 0 0 0 0 0 0 0 0 0 0 0 0 0 0 0 0 0 0 0 0 0 0 0 0 0 0 0 -0.00115015 -0.000640906 -0.000682265 -0.000595285 -9.91672e-05 -3.55265e-05 -5.48628e-06 -2.25706e-06 0 0 0 0 0 0 0 0 0 0 0 0 0 0 0 0 0 0 0 0 0 0 0 0 0 0 0 0 0 0 0 0 -0.00115016 -0.000786583 -0.000682265 -0.00083282 -9.91731e-05 -3.55275e-05 -7.50983e-06 -2.25706e-06 0 0 0 0 0 0 0 0 0 0 0 0 0 0 0 0 0 0 0 0 0 0 0 0 0 0 0 0 0 0 0 0 -0.00115024 -0.000870755 -0.000682265 -0.00125722 -9.91744e-05 -3.55326e-05 -8.89928e-06 -2.25706e-06 0 0 0 0 0 0 0 0 0 0 0 0 0 0 0 0 0 0 0 0 0 0 0 0 0 0 0 0 0 0 0 0 -0.00115062 -0.000912795 -0.000682265 -0.00183876 -9.91747e-05 -3.55597e-05 -9.66021e-06 -2.25706e-06 0 0 0 0 0 0 0 0 0 0 0 0 0 0 0 0 0 0 0 0 0 0 0 0 0 0 0 0 0 0 0 0 -0.0011522 -0.000931035 -0.000682265 -0.00229612 -9.91747e-05 -3.56926e-05 -1.00005e-05 -2.25706e-06 0 0 0 0 0 0 0 0 0 0 0 0 0 0 0 0 0 0 0 0 0 0 0 0 0 0 0 0 0 0 0 0 -0.00115811 -0.000937944 -0.000682265 -0.00168943 -9.91748e-05 -3.62954e-05 -1.01279e-05 -2.25706e-06 0 0 0 0 0 0 0 0 0 0 0 0 0 0 0 0 0 0 0 0 0 0 0 0 0 0 0 0 0 0 0 0 -0.00117763 -0.000940241 -0.000682265 -5.73959e-05 -9.91748e-05 -3.87903e-05 -1.01687e-05 -2.25706e-06 0 0 0 0 0 0 0 0 0 0 0 0 0 0 0 0 0 0 0 0 0 0 0 0 0 0 0 0 0 0 0 0 -0.00123445 -0.000940914 -0.000682265 -0.000170227 -9.91748e-05 -4.80889e-05 -1.01801e-05 -2.25707e-06 0 0 0 0 0 0 0 0 0 0 0 0 0 0 0 0 0 0 0 0 0 0 0 0 0 0 0 0 0 0 0 0 -0.00137959 -0.00094109 -0.000682268 -0.000268543 -9.91748e-05 -7.86745e-05 -1.0183e-05 -2.2571e-06 0 0 0 0 0 0 0 0 0 0 0 0 0 0 0 0 0 0 0 0 0 0 0 0 0 0 0 0 0 0 0 0 -0.00170671 -0.000941131 -0.00068228 -0.000340699 -9.91748e-05 -0.000164425 -1.01837e-05 -2.25719e-06 0 0 0 0 0 0 0 0 0 0 0 0 0 0 0 0 0 0 0 0 0 0 0 0 0 0 0 0 0 0 0 0 -0.00236996 -0.00094114 -0.000682345 -0.000384953 -9.91748e-05 -0.000356883 -1.01839e-05 -2.25758e-06 0 0 0 0 0 0 0 0 0 0 0 0 0 0 0 0 0 0 0 0 0 0 0 0 0 0 0 0 0 0 0 0 -0.00362326 -0.000941142 -0.000682654 -0.000407803 -9.91748e-05 -0.000661812 -1.01839e-05 -2.25919e-06 0 0 0 0 0 0 0 0 0 0 0 0 0 0 0 0 0 0 0 0 0 0 0 0 0 0 0 0 0 0 0 0 -0.00584593 -0.000941142 -0.000683986 -0.000417845 -9.91748e-05 -0.000882895 -1.0184e-05 -2.26842e-06 0 0 0 0 0 0 0 0 0 0 0 0 0 0 0 0 0 0 0 0 0 0 0 0 0 0 0 0 0 0 0 0 -0.00842588 -0.000941142 -0.000689087 -0.000421643 -9.91748e-05 -0.000547107 -1.0184e-05 -2.31221e-06 0 0 0 0 0 0 0 0 0 0 0 0 0 0 0 0 0 0 0 0 0 0 0 0 0 0 0 0 0 0 0 0 -0.000191875 -0.000941142 -0.000706293 -0.000422891 -9.91748e-05 -3.666e-06 -1.0184e-05 -2.55397e-06 0 0 0 0 0 0 0 0 0 0 0 0 0 0 0 0 0 0 0 0 0 0 0 0 0 0 0 0 0 0 0 0 -0.00053907 -0.000941142 -0.000756828 -0.000423252 -9.91749e-05 -1.16177e-05 -1.0184e-05 -3.68061e-06 0 0 0 0 0 0 0 0 0 0 0 0 0 0 0 0 0 0 0 0 0 0 0 0 0 0 0 0 0 0 0 0 -0.000802732 -0.000941142 -0.000884475 -0.000423344 -9.91753e-05 -1.97652e-05 -1.0184e-05 -8.87638e-06 0 0 0 0 0 0 0 0 0 0 0 0 0 0 0 0 0 0 0 0 0 0 0 0 0 0 0 0 0 0 0 0 -0.000974195 -0.000941142 -0.00115806 -0.000423366 -9.91777e-05 -2.66341e-05 -1.0184e-05 -2.85758e-05 0 0 0 0 0 0 0 0 0 0 0 0 0 0 0 0 0 0 0 0 0 0 0 0 0 0 0 0 0 0 0 0 -0.00107079 -0.000941142 -0.00164867 -0.00042337 -9.91912e-05 -3.12633e-05 -1.0184e-05 -8.99499e-05 0 0 0 0 0 0 0 0 0 0 0 0 0 0 0 0 0 0 0 0 0 0 0 0 0 0 0 0 0 0 0 0 -0.00111824 -0.000941142 -0.0023666 -0.000423371 -9.92603e-05 -3.37819e-05 -1.0184e-05 -0.000221174 0 0 0 0 0 0 0 0 0 0 0 0 0 0 0 0 0 0 0 0 0 0 0 0 0 0 0 0 0 0 0 0 -0.00113863 -0.000941142 -0.0030931 -0.000423371 -9.95876e-05 -3.4911e-05 -1.0184e-05 -0.000359066 0 0 0 0 0 0 0 0 0 0 0 0 0 0 0 0 0 0 0 0 0 0 0 0 0 0 0 0 0 0 0 0 -0.00114632 -0.000941142 -0.0026644 -0.000423371 -0.000100992 -3.53369e-05 -1.0184e-05 -0.000238282 0 0 0 0 0 0 0 0 0 0 0 0 0 0 0 0 0 0 0 0 0 0 0 0 0 0 0 0 0 0 0 0 -0.00114888 -0.000941142 -0.000100257 -0.000423371 -0.000106405 -3.54747e-05 -1.0184e-05 -2.05117e-07 0 0 0 0 0 0 0 0 0 0 0 0 0 0 0 0 0 0 0 0 0 0 0 0 0 0 0 0 0 0 0 0 -0.00114963 -0.000941143 -0.000290972 -0.000423371 -0.000124869 -3.55136e-05 -1.0184e-05 -6.66344e-07 0 0 0 0 0 0 0 0 0 0 0 0 0 0 0 0 0 0 0 0 0 0 0 0 0 0 0 0 0 0 0 0 -0.00114983 -0.000941146 -0.000448643 -0.000423371 -0.000179692 -3.55233e-05 -1.01841e-05 -1.1679e-06 0 0 0 0 0 0 0 0 0 0 0 0 0 0 0 0 0 0 0 0 0 0 0 0 0 0 0 0 0 0 0 0 -0.00114988 -0.00094116 -0.000559457 -0.000423371 -0.000317114 -3.55256e-05 -1.01844e-05 -1.61111e-06 0 0 0 0 0 0 0 0 0 0 0 0 0 0 0 0 0 0 0 0 0 0 0 0 0 0 0 0 0 0 0 0 -0.00114989 -0.000941237 -0.000625579 -0.000423371 -0.000592736 -3.55261e-05 -1.0186e-05 -1.91674e-06 0 0 0 0 0 0 0 0 0 0 0 0 0 0 0 0 0 0 0 0 0 0 0 0 0 0 0 0 0 0 0 0 -0.00114989 -0.000941597 -0.00065928 -0.000423371 -0.000987854 -3.55262e-05 -1.01941e-05 -2.08325e-06 0 0 0 0 0 0 0 0 0 0 0 0 0 0 0 0 0 0 0 0 0 0 0 0 0 0 0 0 0 0 0 0 -0.00114989 -0.00116108 -0.000682223 -0.000423373 -5.74219e-05 -3.55263e-05 -2.92453e-05 -2.19576e-06 0 0 0 0 0 0 0 0 0 0 0 0 0 0 0 0 0 0 0 0 0 0 0 0 0 0 0 0 0 0 0 0 -0.00114989 -0.00146168 -0.000682256 -0.000423381 -7.5963e-05 -3.55263e-05 -7.48638e-05 -2.19594e-06 0 0 0 0 0 0 0 0 0 0 0 0 0 0 0 0 0 0 0 0 0 0 0 0 0 0 0 0 0 0 0 0 -0.00114989 -0.00202783 -0.000682263 -0.000423425 -8.81563e-05 -3.55263e-05 -0.000192876 -2.19601e-06 0 0 0 0 0 0 0 0 0 0 0 0 0 0 0 0 0 0 0 0 0 0 0 0 0 0 0 0 0 0 0 0 -0.00114989 -0.00295984 -0.000682264 -0.000423642 -9.47174e-05 -3.55263e-05 -0.000407209 -2.19604e-06 0 0 0 0 0 0 0 0 0 0 0 0 0 0 0 0 0 0 0 0 0 0 0 0 0 0 0 0 0 0 0 0 -0.00114989 -0.00422083 -0.000682265 -0.000424601 -9.76555e-05 -3.55263e-05 -0.000589349 -2.19606e-06 0 0 0 0 0 0 0 0 0 0 0 0 0 0 0 0 0 0 0 0 0 0 0 0 0 0 0 0 0 0 0 0 -0.00114989 -0.00457032 -0.000682265 -0.000428395 -9.87699e-05 -3.55263e-05 -0.000371679 -2.19607e-06 0 0 0 0 0 0 0 0 0 0 0 0 0 0 0 0 0 0 0 0 0 0 0 0 0 0 0 0 0 0 0 0 -0.00114989 -0.000148996 -0.000682265 -0.000441662 -9.91336e-05 -3.55263e-05 -9.80792e-07 -2.19607e-06 0 0 0 0 0 0 0 0 0 0 0 0 0 0 0 0 0 0 0 0 0 0 0 0 0 0 0 0 0 0 0 0 -0.00114989 -0.000424251 -0.000682265 -0.000482128 -9.92372e-05 -3.55263e-05 -3.16155e-06 -2.19607e-06 0 0 0 0 0 0 0 0 0 0 0 0 0 0 0 0 0 0 0 0 0 0 0 0 0 0 0 0 0 0 0 0 -0.00114989 -0.000640906 -0.000682265 -0.000588243 -9.92633e-05 -3.55265e-05 -5.48628e-06 -2.19607e-06 0 0 0 0 0 0 0 0 0 0 0 0 0 0 0 0 0 0 0 0 0 0 0 0 0 0 0 0 0 0 0 0 -0.00114991 -0.000786583 -0.000682265 -0.000822451 -9.92693e-05 -3.55275e-05 -7.50983e-06 -2.19608e-06 0 0 0 0 0 0 0 0 0 0 0 0 0 0 0 0 0 0 0 0 0 0 0 0 0 0 0 0 0 0 0 0 -0.00114999 -0.000870755 -0.000682265 -0.00124434 -9.92706e-05 -3.55326e-05 -8.89928e-06 -2.19608e-06 0 0 0 0 0 0 0 0 0 0 0 0 0 0 0 0 0 0 0 0 0 0 0 0 0 0 0 0 0 0 0 0 -0.00115037 -0.000912795 -0.000682265 -0.00182684 -9.92708e-05 -3.55597e-05 -9.66021e-06 -2.19608e-06 0 0 0 0 0 0 0 0 0 0 0 0 0 0 0 0 0 0 0 0 0 0 0 0 0 0 0 0 0 0 0 0 -0.00115196 -0.000931035 -0.000682265 -0.00228885 -9.92709e-05 -3.56926e-05 -1.00005e-05 -2.19608e-06 0 0 0 0 0 0 0 0 0 0 0 0 0 0 0 0 0 0 0 0 0 0 0 0 0 0 0 0 0 0 0 0 -0.00115788 -0.000937944 -0.000682265 -0.00168734 -9.9271e-05 -3.62954e-05 -1.01279e-05 -2.19608e-06 0 0 0 0 0 0 0 0 0 0 0 0 0 0 0 0 0 0 0 0 0 0 0 0 0 0 0 0 0 0 0 0 -0.00117745 -0.000940241 -0.000682265 -5.67993e-05 -9.9271e-05 -3.87903e-05 -1.01687e-05 -2.19608e-06 0 0 0 0 0 0 0 0 0 0 0 0 0 0 0 0 0 0 0 0 0 0 0 0 0 0 0 0 0 0 0 0 -0.00123436 -0.000940914 -0.000682265 -0.000168453 -9.9271e-05 -4.80889e-05 -1.01801e-05 -2.19609e-06 0 0 0 0 0 0 0 0 0 0 0 0 0 0 0 0 0 0 0 0 0 0 0 0 0 0 0 0 0 0 0 0 -0.0013797 -0.00094109 -0.000682268 -0.000265411 -9.9271e-05 -7.86745e-05 -1.0183e-05 -2.19611e-06 0 0 0 0 0 0 0 0 0 0 0 0 0 0 0 0 0 0 0 0 0 0 0 0 0 0 0 0 0 0 0 0 -0.00170707 -0.000941131 -0.00068228 -0.000336034 -9.9271e-05 -0.000164425 -1.01837e-05 -2.19621e-06 0 0 0 0 0 0 0 0 0 0 0 0 0 0 0 0 0 0 0 0 0 0 0 0 0 0 0 0 0 0 0 0 -0.00237048 -0.00094114 -0.000682345 -0.000378886 -9.9271e-05 -0.000356883 -1.01839e-05 -2.19651e-06 0 0 0 0 0 0 0 0 0 0 0 0 0 0 0 0 0 0 0 0 0 0 0 0 0 0 0 0 0 0 0 0 -0.00362373 -0.000941142 -0.000682654 -0.000400734 -9.9271e-05 -0.000661812 -1.01839e-05 -2.19832e-06 0 0 0 0 0 0 0 0 0 0 0 0 0 0 0 0 0 0 0 0 0 0 0 0 0 0 0 0 0 0 0 0 -0.00584618 -0.000941142 -0.000683986 -0.000410208 -9.9271e-05 -0.000882895 -1.0184e-05 -2.20547e-06 0 0 0 0 0 0 0 0 0 0 0 0 0 0 0 0 0 0 0 0 0 0 0 0 0 0 0 0 0 0 0 0 -0.00842594 -0.000941142 -0.000689087 -0.000413744 -9.9271e-05 -0.000547107 -1.0184e-05 -2.25126e-06 0 0 0 0 0 0 0 0 0 0 0 0 0 0 0 0 0 0 0 0 0 0 0 0 0 0 0 0 0 0 0 0 -0.000191835 -0.000941142 -0.000706293 -0.000414892 -9.9271e-05 -3.666e-06 -1.0184e-05 -2.45489e-06 0 0 0 0 0 0 0 0 0 0 0 0 0 0 0 0 0 0 0 0 0 0 0 0 0 0 0 0 0 0 0 0 -0.000538972 -0.000941142 -0.000756827 -0.000415219 -9.92711e-05 -1.16177e-05 -1.0184e-05 -3.56177e-06 0 0 0 0 0 0 0 0 0 0 0 0 0 0 0 0 0 0 0 0 0 0 0 0 0 0 0 0 0 0 0 0 -0.000802615 -0.000941142 -0.000884479 -0.000415302 -9.92715e-05 -1.97652e-05 -1.0184e-05 -8.24509e-06 0 0 0 0 0 0 0 0 0 0 0 0 0 0 0 0 0 0 0 0 0 0 0 0 0 0 0 0 0 0 0 0 -0.000974091 -0.000941142 -0.00115803 -0.000415321 -9.9274e-05 -2.66341e-05 -1.0184e-05 -2.71797e-05 0 0 0 0 0 0 0 0 0 0 0 0 0 0 0 0 0 0 0 0 0 0 0 0 0 0 0 0 0 0 0 0 -0.00107071 -0.000941142 -0.00164875 -0.000415325 -9.92874e-05 -3.12633e-05 -1.0184e-05 -8.47017e-05 0 0 0 0 0 0 0 0 0 0 0 0 0 0 0 0 0 0 0 0 0 0 0 0 0 0 0 0 0 0 0 0 -0.00111817 -0.000941142 -0.00236635 -0.000415326 -9.93569e-05 -3.37819e-05 -1.0184e-05 -0.000212541 0 0 0 0 0 0 0 0 0 0 0 0 0 0 0 0 0 0 0 0 0 0 0 0 0 0 0 0 0 0 0 0 -0.00113858 -0.000941142 -0.0030936 -0.000415326 -9.96854e-05 -3.4911e-05 -1.0184e-05 -0.000346721 0 0 0 0 0 0 0 0 0 0 0 0 0 0 0 0 0 0 0 0 0 0 0 0 0 0 0 0 0 0 0 0 -0.00114627 -0.000941142 -0.00266387 -0.000415326 -0.000101096 -3.53369e-05 -1.0184e-05 -0.000234006 0 0 0 0 0 0 0 0 0 0 0 0 0 0 0 0 0 0 0 0 0 0 0 0 0 0 0 0 0 0 0 0 -0.00114883 -0.000941142 -0.000100258 -0.000415326 -0.000106529 -3.54747e-05 -1.0184e-05 -1.8924e-07 0 0 0 0 0 0 0 0 0 0 0 0 0 0 0 0 0 0 0 0 0 0 0 0 0 0 0 0 0 0 0 0 -0.00114958 -0.000941143 -0.000290969 -0.000415326 -0.000125064 -3.55136e-05 -1.0184e-05 -6.13743e-07 0 0 0 0 0 0 0 0 0 0 0 0 0 0 0 0 0 0 0 0 0 0 0 0 0 0 0 0 0 0 0 0 -0.00114978 -0.000941146 -0.000448649 -0.000415326 -0.000180071 -3.55233e-05 -1.01841e-05 -1.07227e-06 0 0 0 0 0 0 0 0 0 0 0 0 0 0 0 0 0 0 0 0 0 0 0 0 0 0 0 0 0 0 0 0 -0.00114983 -0.00094116 -0.000559451 -0.000415326 -0.000317916 -3.55256e-05 -1.01844e-05 -1.47347e-06 0 0 0 0 0 0 0 0 0 0 0 0 0 0 0 0 0 0 0 0 0 0 0 0 0 0 0 0 0 0 0 0 -0.00114984 -0.000941237 -0.000625584 -0.000415326 -0.000594116 -3.55261e-05 -1.0186e-05 -1.74703e-06 0 0 0 0 0 0 0 0 0 0 0 0 0 0 0 0 0 0 0 0 0 0 0 0 0 0 0 0 0 0 0 0 -0.00114984 -0.000941597 -0.000659276 -0.000415326 -0.000989626 -3.55262e-05 -1.01941e-05 -1.89432e-06 0 0 0 0 0 0 0 0 0 0 0 0 0 0 0 0 0 0 0 0 0 0 0 0 0 0 0 0 0 0 0 0 -0.00114984 -0.000943115 -0.000674059 -0.000415326 -0.00125095 -3.55262e-05 -1.02352e-05 -1.95876e-06 0 0 0 0 0 0 0 0 0 0 0 0 0 0 0 0 0 0 0 0 0 0 0 0 0 0 0 0 0 0 0 0 -0.00114984 -0.000948826 -0.000679672 -0.000415326 -0.000787553 -3.55263e-05 -1.04346e-05 -1.98233e-06 0 0 0 0 0 0 0 0 0 0 0 0 0 0 0 0 0 0 0 0 0 0 0 0 0 0 0 0 0 0 0 0 -0.00114984 -0.000967775 -0.000681538 -0.000415326 -1.11274e-05 -3.55263e-05 -1.13374e-05 -1.98976e-06 0 0 0 0 0 0 0 0 0 0 0 0 0 0 0 0 0 0 0 0 0 0 0 0 0 0 0 0 0 0 0 0 -0.00114984 -0.00102275 -0.000682082 -0.000415326 -3.45497e-05 -3.55263e-05 -1.51074e-05 -1.99185e-06 0 0 0 0 0 0 0 0 0 0 0 0 0 0 0 0