# vtk DataFile Version 2.0
Presion
ASCII

DATASET STRUCTURED_GRID
DIMENSIONS   40   40   30

POINTS   48000   double
0.0125   0.0125   0.0166667
0.0375   0.0125   0.0166667
0.0625   0.0125   0.0166667
0.0875   0.0125   0.0166667
0.1125   0.0125   0.0166667
0.1375   0.0125   0.0166667
0.1625   0.0125   0.0166667
0.1875   0.0125   0.0166667
0.2125   0.0125   0.0166667
0.2375   0.0125   0.0166667
0.2625   0.0125   0.0166667
0.2875   0.0125   0.0166667
0.3125   0.0125   0.0166667
0.3375   0.0125   0.0166667
0.3625   0.0125   0.0166667
0.3875   0.0125   0.0166667
0.4125   0.0125   0.0166667
0.4375   0.0125   0.0166667
0.4625   0.0125   0.0166667
0.4875   0.0125   0.0166667
0.5125   0.0125   0.0166667
0.5375   0.0125   0.0166667
0.5625   0.0125   0.0166667
0.5875   0.0125   0.0166667
0.6125   0.0125   0.0166667
0.6375   0.0125   0.0166667
0.6625   0.0125   0.0166667
0.6875   0.0125   0.0166667
0.7125   0.0125   0.0166667
0.7375   0.0125   0.0166667
0.7625   0.0125   0.0166667
0.7875   0.0125   0.0166667
0.8125   0.0125   0.0166667
0.8375   0.0125   0.0166667
0.8625   0.0125   0.0166667
0.8875   0.0125   0.0166667
0.9125   0.0125   0.0166667
0.9375   0.0125   0.0166667
0.9625   0.0125   0.0166667
0.9875   0.0125   0.0166667
0.0125   0.0375   0.0166667
0.0375   0.0375   0.0166667
0.0625   0.0375   0.0166667
0.0875   0.0375   0.0166667
0.1125   0.0375   0.0166667
0.1375   0.0375   0.0166667
0.1625   0.0375   0.0166667
0.1875   0.0375   0.0166667
0.2125   0.0375   0.0166667
0.2375   0.0375   0.0166667
0.2625   0.0375   0.0166667
0.2875   0.0375   0.0166667
0.3125   0.0375   0.0166667
0.3375   0.0375   0.0166667
0.3625   0.0375   0.0166667
0.3875   0.0375   0.0166667
0.4125   0.0375   0.0166667
0.4375   0.0375   0.0166667
0.4625   0.0375   0.0166667
0.4875   0.0375   0.0166667
0.5125   0.0375   0.0166667
0.5375   0.0375   0.0166667
0.5625   0.0375   0.0166667
0.5875   0.0375   0.0166667
0.6125   0.0375   0.0166667
0.6375   0.0375   0.0166667
0.6625   0.0375   0.0166667
0.6875   0.0375   0.0166667
0.7125   0.0375   0.0166667
0.7375   0.0375   0.0166667
0.7625   0.0375   0.0166667
0.7875   0.0375   0.0166667
0.8125   0.0375   0.0166667
0.8375   0.0375   0.0166667
0.8625   0.0375   0.0166667
0.8875   0.0375   0.0166667
0.9125   0.0375   0.0166667
0.9375   0.0375   0.0166667
0.9625   0.0375   0.0166667
0.9875   0.0375   0.0166667
0.0125   0.0625   0.0166667
0.0375   0.0625   0.0166667
0.0625   0.0625   0.0166667
0.0875   0.0625   0.0166667
0.1125   0.0625   0.0166667
0.1375   0.0625   0.0166667
0.1625   0.0625   0.0166667
0.1875   0.0625   0.0166667
0.2125   0.0625   0.0166667
0.2375   0.0625   0.0166667
0.2625   0.0625   0.0166667
0.2875   0.0625   0.0166667
0.3125   0.0625   0.0166667
0.3375   0.0625   0.0166667
0.3625   0.0625   0.0166667
0.3875   0.0625   0.0166667
0.4125   0.0625   0.0166667
0.4375   0.0625   0.0166667
0.4625   0.0625   0.0166667
0.4875   0.0625   0.0166667
0.5125   0.0625   0.0166667
0.5375   0.0625   0.0166667
0.5625   0.0625   0.0166667
0.5875   0.0625   0.0166667
0.6125   0.0625   0.0166667
0.6375   0.0625   0.0166667
0.6625   0.0625   0.0166667
0.6875   0.0625   0.0166667
0.7125   0.0625   0.0166667
0.7375   0.0625   0.0166667
0.7625   0.0625   0.0166667
0.7875   0.0625   0.0166667
0.8125   0.0625   0.0166667
0.8375   0.0625   0.0166667
0.8625   0.0625   0.0166667
0.8875   0.0625   0.0166667
0.9125   0.0625   0.0166667
0.9375   0.0625   0.0166667
0.9625   0.0625   0.0166667
0.9875   0.0625   0.0166667
0.0125   0.0875   0.0166667
0.0375   0.0875   0.0166667
0.0625   0.0875   0.0166667
0.0875   0.0875   0.0166667
0.1125   0.0875   0.0166667
0.1375   0.0875   0.0166667
0.1625   0.0875   0.0166667
0.1875   0.0875   0.0166667
0.2125   0.0875   0.0166667
0.2375   0.0875   0.0166667
0.2625   0.0875   0.0166667
0.2875   0.0875   0.0166667
0.3125   0.0875   0.0166667
0.3375   0.0875   0.0166667
0.3625   0.0875   0.0166667
0.3875   0.0875   0.0166667
0.4125   0.0875   0.0166667
0.4375   0.0875   0.0166667
0.4625   0.0875   0.0166667
0.4875   0.0875   0.0166667
0.5125   0.0875   0.0166667
0.5375   0.0875   0.0166667
0.5625   0.0875   0.0166667
0.5875   0.0875   0.0166667
0.6125   0.0875   0.0166667
0.6375   0.0875   0.0166667
0.6625   0.0875   0.0166667
0.6875   0.0875   0.0166667
0.7125   0.0875   0.0166667
0.7375   0.0875   0.0166667
0.7625   0.0875   0.0166667
0.7875   0.0875   0.0166667
0.8125   0.0875   0.0166667
0.8375   0.0875   0.0166667
0.8625   0.0875   0.0166667
0.8875   0.0875   0.0166667
0.9125   0.0875   0.0166667
0.9375   0.0875   0.0166667
0.9625   0.0875   0.0166667
0.9875   0.0875   0.0166667
0.0125   0.1125   0.0166667
0.0375   0.1125   0.0166667
0.0625   0.1125   0.0166667
0.0875   0.1125   0.0166667
0.1125   0.1125   0.0166667
0.1375   0.1125   0.0166667
0.1625   0.1125   0.0166667
0.1875   0.1125   0.0166667
0.2125   0.1125   0.0166667
0.2375   0.1125   0.0166667
0.2625   0.1125   0.0166667
0.2875   0.1125   0.0166667
0.3125   0.1125   0.0166667
0.3375   0.1125   0.0166667
0.3625   0.1125   0.0166667
0.3875   0.1125   0.0166667
0.4125   0.1125   0.0166667
0.4375   0.1125   0.0166667
0.4625   0.1125   0.0166667
0.4875   0.1125   0.0166667
0.5125   0.1125   0.0166667
0.5375   0.1125   0.0166667
0.5625   0.1125   0.0166667
0.5875   0.1125   0.0166667
0.6125   0.1125   0.0166667
0.6375   0.1125   0.0166667
0.6625   0.1125   0.0166667
0.6875   0.1125   0.0166667
0.7125   0.1125   0.0166667
0.7375   0.1125   0.0166667
0.7625   0.1125   0.0166667
0.7875   0.1125   0.0166667
0.8125   0.1125   0.0166667
0.8375   0.1125   0.0166667
0.8625   0.1125   0.0166667
0.8875   0.1125   0.0166667
0.9125   0.1125   0.0166667
0.9375   0.1125   0.0166667
0.9625   0.1125   0.0166667
0.9875   0.1125   0.0166667
0.0125   0.1375   0.0166667
0.0375   0.1375   0.0166667
0.0625   0.1375   0.0166667
0.0875   0.1375   0.0166667
0.1125   0.1375   0.0166667
0.1375   0.1375   0.0166667
0.1625   0.1375   0.0166667
0.1875   0.1375   0.0166667
0.2125   0.1375   0.0166667
0.2375   0.1375   0.0166667
0.2625   0.1375   0.0166667
0.2875   0.1375   0.0166667
0.3125   0.1375   0.0166667
0.3375   0.1375   0.0166667
0.3625   0.1375   0.0166667
0.3875   0.1375   0.0166667
0.4125   0.1375   0.0166667
0.4375   0.1375   0.0166667
0.4625   0.1375   0.0166667
0.4875   0.1375   0.0166667
0.5125   0.1375   0.0166667
0.5375   0.1375   0.0166667
0.5625   0.1375   0.0166667
0.5875   0.1375   0.0166667
0.6125   0.1375   0.0166667
0.6375   0.1375   0.0166667
0.6625   0.1375   0.0166667
0.6875   0.1375   0.0166667
0.7125   0.1375   0.0166667
0.7375   0.1375   0.0166667
0.7625   0.1375   0.0166667
0.7875   0.1375   0.0166667
0.8125   0.1375   0.0166667
0.8375   0.1375   0.0166667
0.8625   0.1375   0.0166667
0.8875   0.1375   0.0166667
0.9125   0.1375   0.0166667
0.9375   0.1375   0.0166667
0.9625   0.1375   0.0166667
0.9875   0.1375   0.0166667
0.0125   0.1625   0.0166667
0.0375   0.1625   0.0166667
0.0625   0.1625   0.0166667
0.0875   0.1625   0.0166667
0.1125   0.1625   0.0166667
0.1375   0.1625   0.0166667
0.1625   0.1625   0.0166667
0.1875   0.1625   0.0166667
0.2125   0.1625   0.0166667
0.2375   0.1625   0.0166667
0.2625   0.1625   0.0166667
0.2875   0.1625   0.0166667
0.3125   0.1625   0.0166667
0.3375   0.1625   0.0166667
0.3625   0.1625   0.0166667
0.3875   0.1625   0.0166667
0.4125   0.1625   0.0166667
0.4375   0.1625   0.0166667
0.4625   0.1625   0.0166667
0.4875   0.1625   0.0166667
0.5125   0.1625   0.0166667
0.5375   0.1625   0.0166667
0.5625   0.1625   0.0166667
0.5875   0.1625   0.0166667
0.6125   0.1625   0.0166667
0.6375   0.1625   0.0166667
0.6625   0.1625   0.0166667
0.6875   0.1625   0.0166667
0.7125   0.1625   0.0166667
0.7375   0.1625   0.0166667
0.7625   0.1625   0.0166667
0.7875   0.1625   0.0166667
0.8125   0.1625   0.0166667
0.8375   0.1625   0.0166667
0.8625   0.1625   0.0166667
0.8875   0.1625   0.0166667
0.9125   0.1625   0.0166667
0.9375   0.1625   0.0166667
0.9625   0.1625   0.0166667
0.9875   0.1625   0.0166667
0.0125   0.1875   0.0166667
0.0375   0.1875   0.0166667
0.0625   0.1875   0.0166667
0.0875   0.1875   0.0166667
0.1125   0.1875   0.0166667
0.1375   0.1875   0.0166667
0.1625   0.1875   0.0166667
0.1875   0.1875   0.0166667
0.2125   0.1875   0.0166667
0.2375   0.1875   0.0166667
0.2625   0.1875   0.0166667
0.2875   0.1875   0.0166667
0.3125   0.1875   0.0166667
0.3375   0.1875   0.0166667
0.3625   0.1875   0.0166667
0.3875   0.1875   0.0166667
0.4125   0.1875   0.0166667
0.4375   0.1875   0.0166667
0.4625   0.1875   0.0166667
0.4875   0.1875   0.0166667
0.5125   0.1875   0.0166667
0.5375   0.1875   0.0166667
0.5625   0.1875   0.0166667
0.5875   0.1875   0.0166667
0.6125   0.1875   0.0166667
0.6375   0.1875   0.0166667
0.6625   0.1875   0.0166667
0.6875   0.1875   0.0166667
0.7125   0.1875   0.0166667
0.7375   0.1875   0.0166667
0.7625   0.1875   0.0166667
0.7875   0.1875   0.0166667
0.8125   0.1875   0.0166667
0.8375   0.1875   0.0166667
0.8625   0.1875   0.0166667
0.8875   0.1875   0.0166667
0.9125   0.1875   0.0166667
0.9375   0.1875   0.0166667
0.9625   0.1875   0.0166667
0.9875   0.1875   0.0166667
0.0125   0.2125   0.0166667
0.0375   0.2125   0.0166667
0.0625   0.2125   0.0166667
0.0875   0.2125   0.0166667
0.1125   0.2125   0.0166667
0.1375   0.2125   0.0166667
0.1625   0.2125   0.0166667
0.1875   0.2125   0.0166667
0.2125   0.2125   0.0166667
0.2375   0.2125   0.0166667
0.2625   0.2125   0.0166667
0.2875   0.2125   0.0166667
0.3125   0.2125   0.0166667
0.3375   0.2125   0.0166667
0.3625   0.2125   0.0166667
0.3875   0.2125   0.0166667
0.4125   0.2125   0.0166667
0.4375   0.2125   0.0166667
0.4625   0.2125   0.0166667
0.4875   0.2125   0.0166667
0.5125   0.2125   0.0166667
0.5375   0.2125   0.0166667
0.5625   0.2125   0.0166667
0.5875   0.2125   0.0166667
0.6125   0.2125   0.0166667
0.6375   0.2125   0.0166667
0.6625   0.2125   0.0166667
0.6875   0.2125   0.0166667
0.7125   0.2125   0.0166667
0.7375   0.2125   0.0166667
0.7625   0.2125   0.0166667
0.7875   0.2125   0.0166667
[...]
POINT_DATA   48000
SCALARS Presion double
LOOKUP_TABLE   Presion

0 0 0 0 0 0 0 0 0 0 0 0 0 0 0 0 0 0 0 0 0 0 0 0 0 0 0 0 0 0 0 -0.00047978 -0.000502101 -0.000192494 -0.000450739 -0.00102247 -0.000351631 -0.00035752 -9.91802e-05 0 0 0 0 0 0 0 0 0 0 0 0 0 0 0 0 0 0 0 0 0 0 0 0 0 0 0 0 0 0 0 0 -0.000485509 -0.000516626 -0.000256176 -0.000450932 -0.00124254 -0.000357544 -0.000374033 -0.000136301 0 0 0 0 0 0 0 0 0 0 0 0 0 0 0 0 0 0 0 0 0 0 0 0 0 0 0 0 0 0 0 0 -0.000489148 -0.000539775 -0.000309681 -0.000451219 -0.00150011 -0.000361403 -0.000398971 -0.000170192 0 0 0 0 0 0 0 0 0 0 0 0 0 0 0 0 0 0 0 0 0 0 0 0 0 0 0 0 0 0 0 0 -0.000491388 -0.00057577 -0.000352918 -0.000451734 -0.00173416 -0.000363837 -0.000435193 -0.000199851 0 0 0 0 0 0 0 0 0 0 0 0 0 0 0 0 0 0 0 0 0 0 0 0 0 0 0 0 0 0 0 0 -0.000492724 -0.000630604 -0.000386613 -0.000452694 -0.00173224 -0.000365322 -0.000485886 -0.000224703 0 0 0 0 0 0 0 0 0 0 0 0 0 0 0 0 0 0 0 0 0 0 0 0 0 0 0 0 0 0 0 0 -0.0004935 -0.000712896 -0.000411982 -0.000454459 -0.000967549 -0.000366201 -0.000554431 -0.000244649 0 0 0 0 0 0 0 0 0 0 0 0 0 0 0 0 0 0 0 0 0 0 0 0 0 0 0 0 0 0 0 0 -0.000493942 -0.000835422 -0.00043046 -0.000457611 -3.18893e-05 -0.000366712 -0.000644245 -0.00026 0 0 0 0 0 0 0 0 0 0 0 0 0 0 0 0 0 0 0 0 0 0 0 0 0 0 0 0 0 0 0 0 -0.000494199 -0.0010179 -0.000443491 -0.00046306 -9.42878e-05 -0.000367019 -0.000758455 -0.000271343 0 0 0 0 0 0 0 0 0 0 0 0 0 0 0 0 0 0 0 0 0 0 0 0 0 0 0 0 0 0 0 0 -0.000494373 -0.00129211 -0.000452391 -0.000472176 -0.00015307 -0.000367236 -0.000898697 -0.0002794 0 0 0 0 0 0 0 0 0 0 0 0 0 0 0 0 0 0 0 0 0 0 0 0 0 0 0 0 0 0 0 0 -0.000494543 -0.00171071 -0.000458281 -0.000486933 -0.00020623 -0.000367459 -0.00106125 -0.000284907 0 0 0 0 0 0 0 0 0 0 0 0 0 0 0 0 0 0 0 0 0 0 0 0 0 0 0 0 0 0 0 0 -0.000494794 -0.00235979 -0.000462056 -0.000510092 -0.000252376 -0.000367797 -0.00122607 -0.000288533 0 0 0 0 0 0 0 0 0 0 0 0 0 0 0 0 0 0 0 0 0 0 0 0 0 0 0 0 0 0 0 0 -0.000495246 -0.00335809 -0.000464401 -0.000545404 -0.00029085 -0.000368407 -0.00132963 -0.000290834 0 0 0 0 0 0 0 0 0 0 0 0 0 0 0 0 0 0 0 0 0 0 0 0 0 0 0 0 0 0 0 0 -0.000496098 -0.0047063 -0.000465814 -0.000597899 -0.000321692 -0.000369537 -0.00121214 -0.000292245 0 0 0 0 0 0 0 0 0 0 0 0 0 0 0 0 0 0 0 0 0 0 0 0 0 0 0 0 0 0 0 0 -0.000497683 -0.0050643 -0.000466641 -0.000674329 -0.000345495 -0.000371598 -0.000588291 -0.000293084 0 0 0 0 0 0 0 0 0 0 0 0 0 0 0 0 0 0 0 0 0 0 0 0 0 0 0 0 0 0 0 0 -0.000500549 -4.27983e-05 -0.000467117 -0.000783894 -0.000363198 -0.000375237 -2.39826e-05 -0.000293574 0 0 0 0 0 0 0 0 0 0 0 0 0 0 0 0 0 0 0 0 0 0 0 0 0 0 0 0 0 0 0 0 -0.000505582 -0.000125516 -0.000467399 -0.000939316 -0.000375902 -0.000381432 -7.14079e-05 -0.00029387 0 0 0 0 0 0 0 0 0 0 0 0 0 0 0 0 0 0 0 0 0 0 0 0 0 0 0 0 0 0 0 0 -0.000514154 -0.000201167 -0.000467592 -0.00115808 -0.000384702 -0.000391592 -0.000117179 -0.000294081 0 0 0 0 0 0 0 0 0 0 0 0 0 0 0 0 0 0 0 0 0 0 0 0 0 0 0 0 0 0 0 0 -0.000528335 -0.000267065 -0.000467784 -0.00146235 -0.000390591 -0.000407635 -0.000159868 -0.000294305 0 0 0 0 0 0 0 0 0 0 0 0 0 0 0 0 0 0 0 0 0 0 0 0 0 0 0 0 0 0 0 0 -0.000551165 -0.000322053 -0.000468069 -0.00187116 -0.000394399 -0.000432034 -0.000198156 -0.000294651 0 0 0 0 0 0 0 0 0 0 0 0 0 0 0 0 0 0 0 0 0 0 0 0 0 0 0 0 0 0 0 0 -0.000587051 -0.000366191 -0.000468577 -0.00235965 -0.000396779 -0.000467826 -0.000231113 -0.00029528 0 0 0 0 0 0 0 0 0 0 0 0 0 0 0 0 0 0 0 0 0 0 0 0 0 0 0 0 0 0 0 0 -0.000642371 -0.00040037 -0.000469522 -0.00269373 -0.000398219 -0.000518583 -0.000258327 -0.000296458 0 0 0 0 0 0 0 0 0 0 0 0 0 0 0 0 0 0 0 0 0 0 0 0 0 0 0 0 0 0 0 0 -0.000726517 -0.000425958 -0.000471259 -0.00190574 -0.000399065 -0.000588399 -0.000279901 -0.000298615 0 0 0 0 0 0 0 0 0 0 0 0 0 0 0 0 0 0 0 0 0 0 0 0 0 0 0 0 0 0 0 0 -0.000853841 -0.000444502 -0.000474363 -3.86413e-05 -0.000399553 -0.000681885 -0.000296337 -0.000302436 0 0 0 0 0 0 0 0 0 0 0 0 0 0 0 0 0 0 0 0 0 0 0 0 0 0 0 0 0 0 0 0 -0.00104749 -0.000457521 -0.000479739 -0.000113652 -0.000399842 -0.000804028 -0.000308384 -0.000308951 0 0 0 0 0 0 0 0 0 0 0 0 0 0 0 0 0 0 0 0 0 0 0 0 0 0 0 0 0 0 0 0 -0.00134732 -0.000466378 -0.00048876 -0.000183017 -0.000400043 -0.000959226 -0.000316888 -0.000319626 0 0 0 0 0 0 0 0 0 0 0 0 0 0 0 0 0 0 0 0 0 0 0 0 0 0 0 0 0 0 0 0 -0.00182658 -0.00047222 -0.00050344 -0.00024429 -0.000400248 -0.00114756 -0.000322674 -0.000336406 0 0 0 0 0 0 0 0 0 0 0 0 0 0 0 0 0 0 0 0 0 0 0 0 0 0 0 0 0 0 0 0 -0.00262761 -0.000475953 -0.000526641 -0.000296172 -0.000400556 -0.00135304 -0.000326471 -0.000361705 0 0 0 0 0 0 0 0 0 0 0 0 0 0 0 0 0 0 0 0 0 0 0 0 0 0 0 0 0 0 0 0 -0.00402969 -0.000478267 -0.000562358 -0.000338398 -0.000401111 -0.0015113 -0.000328877 -0.000398282 0 0 0 0 0 0 0 0 0 0 0 0 0 0 0 0 0 0 0 0 0 0 0 0 0 0 0 0 0 0 0 0 -0.00647942 -0.000479657 -0.000616116 -0.000371507 -0.000402148 -0.00143631 -0.00033035 -0.000449045 0 0 0 0 0 0 0 0 0 0 0 0 0 0 0 0 0 0 0 0 0 0 0 0 0 0 0 0 0 0 0 0 -0.00932554 -0.000480469 -0.00069562 -0.000396558 -0.00040405 -0.000741385 -0.000331225 -0.000516792 0 0 0 0 0 0 0 0 0 0 0 0 0 0 0 0 0 0 0 0 0 0 0 0 0 0 0 0 0 0 0 0 -4.44785e-05 -0.000480936 -0.000811856 -0.000414871 -0.000407434 -2.78916e-05 -0.000331736 -0.000603922 0 0 0 0 0 0 0 0 0 0 0 0 0 0 0 0 0 0 0 0 0 0 0 0 0 0 0 0 0 0 0 0 -0.000130355 -0.00048121 -0.000980926 -0.000427818 -0.000413244 -8.27401e-05 -0.000332043 -0.000711956 0 0 0 0 0 0 0 0 0 0 0 0 0 0 0 0 0 0 0 0 0 0 0 0 0 0 0 0 0 0 0 0 -0.000208602 -0.000481398 -0.0012269 -0.000436673 -0.000422866 -0.00013501 -0.000332262 -0.000840245 0 0 0 0 0 0 0 0 0 0 0 0 0 0 0 0 0 0 0 0 0 0 0 0 0 0 0 0 0 0 0 0 -0.000276421 -0.000481584 -0.00158518 -0.000442535 -0.000438232 -0.000182989 -0.000332491 -0.00098221 0 0 0 0 0 0 0 0 0 0 0 0 0 0 0 0 0 0 0 0 0 0 0 0 0 0 0 0 0 0 0 0 -0.000332694 -0.000481857 -0.00210161 -0.00044629 -0.000461909 -0.000225311 -0.000332841 -0.00111546 0 0 0 0 0 0 0 0 0 0 0 0 0 0 0 0 0 0 0 0 0 0 0 0 0 0 0 0 0 0 0 0 -0.000377601 -0.000482347 -0.00280136 -0.00044862 -0.000497173 -0.000261162 -0.000333474 -0.00117945 0 0 0 0 0 0 0 0 0 0 0 0 0 0 0 0 0 0 0 0 0 0 0 0 0 0 0 0 0 0 0 0 -0.000412175 -0.00048326 -0.00350308 -0.00045002 -0.000548074 -0.00029034 -0.00033465 -0.00103824 0 0 0 0 0 0 0 0 0 0 0 0 0 0 0 0 0 0 0 0 0 0 0 0 0 0 0 0 0 0 0 0 -0.000437914 -0.000484943 -0.0029655 -0.000450838 -0.000619544 -0.000313176 -0.000336795 -0.000480017 0 0 0 0 0 0 0 0 0 0 0 0 0 0 0 0 0 0 0 0 0 0 0 0 0 0 0 0 0 0 0 0 -0.000456466 -0.000487963 -4.08211e-05 -0.000451307 -0.000717568 -0.000330382 -0.000340578 -2.00835e-05 0 0 0 0 0 0 0 0 0 0 0 0 0 0 0 0 0 0 0 0 0 0 0 0 0 0 0 0 0 0 0 0 -0.000469423 -0.000493217 -0.000119862 -0.000451583 -0.000849309 -0.000342876 -0.000347007 -6.00432e-05 0 0 0 0 0 0 0 0 0 0 0 0 0 0 0 0 0 0 0 0 0 0 0 0 0 0 0 0 0 0 0 0 -0.00049122 -0.000630595 -0.000386637 -0.000453694 -0.00173223 -0.000365318 -0.00048588 -0.00022464 0 0 0 0 0 0 0 0 0 0 0 0 0 0 0 0 0 0 0 0 0 0 0 0 0 0 0 0 0 0 0 0 -0.000492005 -0.00071289 -0.000412006 -0.000455434 -0.000967545 -0.000366197 -0.000554424 -0.000244554 0 0 0 0 0 0 0 0 0 0 0 0 0 0 0 0 0 0 0 0 0 0 0 0 0 0 0 0 0 0 0 0 -0.000492454 -0.000835418 -0.000430484 -0.000458549 -3.18044e-05 -0.000366709 -0.000644239 -0.000259866 0 0 0 0 0 0 0 0 0 0 0 0 0 0 0 0 0 0 0 0 0 0 0 0 0 0 0 0 0 0 0 0 -0.000492715 -0.0010179 -0.000443514 -0.000463946 -9.40365e-05 -0.000367016 -0.000758449 -0.000271167 0 0 0 0 0 0 0 0 0 0 0 0 0 0 0 0 0 0 0 0 0 0 0 0 0 0 0 0 0 0 0 0 -0.000492892 -0.00129211 -0.000452413 -0.00047299 -0.000152665 -0.000367233 -0.000898693 -0.000279184 0 0 0 0 0 0 0 0 0 0 0 0 0 0 0 0 0 0 0 0 0 0 0 0 0 0 0 0 0 0 0 0 -0.000493066 -0.00171071 -0.000458302 -0.000487657 -0.000205696 -0.000367456 -0.00106125 -0.000284656 0 0 0 0 0 0 0 0 0 0 0 0 0 0 0 0 0 0 0 0 0 0 0 0 0 0 0 0 0 0 0 0 -0.000493322 -0.00235979 -0.000462077 -0.000510709 -0.000251746 -0.000367795 -0.00122607 -0.000288253 0 0 0 0 0 0 0 0 0 0 0 0 0 0 0 0 0 0 0 0 0 0 0 0 0 0 0 0 0 0 0 0 -0.000493783 -0.00335809 -0.000464422 -0.000545905 -0.00029016 -0.000368404 -0.00132963 -0.000290533 0 0 0 0 0 0 0 0 0 0 0 0 0 0 0 0 0 0 0 0 0 0 0 0 0 0 0 0 0 0 0 0 -0.000494649 -0.0047063 -0.000465834 -0.000598284 -0.000320975 -0.000369535 -0.00121214 -0.000291928 0 0 0 0 0 0 0 0 0 0 0 0 0 0 0 0 0 0 0 0 0 0 0 0 0 0 0 0 0 0 0 0 -0.000496256 -0.0050643 -0.000466661 -0.00067461 -0.000344776 -0.000371597 -0.000588291 -0.000292755 0 0 0 0 0 0 0 0 0 0 0 0 0 0 0 0 0 0 0 0 0 0 0 0 0 0 0 0 0 0 0 0 -0.000499158 -4.27966e-05 -0.000467137 -0.000784089 -0.000362497 -0.000375236 -2.39832e-05 -0.000293238 0 0 0 0 0 0 0 0 0 0 0 0 0 0 0 0 0 0 0 0 0 0 0 0 0 0 0 0 0 0 0 0 -0.000504243 -0.000125512 -0.000467418 -0.000939447 -0.000375228 -0.000381433 -7.14096e-05 -0.000293528 0 0 0 0 0 0 0 0 0 0 0 0 0 0 0 0 0 0 0 0 0 0 0 0 0 0 0 0 0 0 0 0 -0.000512887 -0.000201159 -0.000467612 -0.00115817 -0.000384059 -0.000391594 -0.000117182 -0.000293735 0 0 0 0 0 0 0 0 0 0 0 0 0 0 0 0 0 0 0 0 0 0 0 0 0 0 0 0 0 0 0 0 -0.000527164 -0.000267055 -0.000467804 -0.00146241 -0.000389977 -0.000407639 -0.000159871 -0.000293954 0 0 0 0 0 0 0 0 0 0 0 0 0 0 0 0 0 0 0 0 0 0 0 0 0 0 0 0 0 0 0 0 -0.000550113 -0.000322042 -0.000468088 -0.0018712 -0.000393809 -0.00043204 -0.000198161 -0.000294292 0 0 0 0 0 0 0 0 0 0 0 0 0 0 0 0 0 0 0 0 0 0 0 0 0 0 0 0 0 0 0 0 -0.00058614 -0.000366179 -0.000468596 -0.00235967 -0.000396209 -0.000467834 -0.000231117 -0.000294909 0 0 0 0 0 0 0 0 0 0 0 0 0 0 0 0 0 0 0 0 0 0 0 0 0 0 0 0 0 0 0 0 -0.000641614 -0.000400359 -0.000469541 -0.00269374 -0.000397663 -0.000518593 -0.000258331 -0.000296066 0 0 0 0 0 0 0 0 0 0 0 0 0 0 0 0 0 0 0 0 0 0 0 0 0 0 0 0 0 0 0 0 -0.000725917 -0.000425947 -0.000471278 -0.00190574 -0.000398519 -0.000588409 -0.000279905 -0.000298191 0 0 0 0 0 0 0 0 0 0 0 0 0 0 0 0 0 0 0 0 0 0 0 0 0 0 0 0 0 0 0 0 -0.000853391 -0.00044449 -0.000474381 -3.88602e-05 -0.000399014 -0.000681895 -0.00029634 -0.000301964 0 0 0 0 0 0 0 0 0 0 0 0 0 0 0 0 0 0 0 0 0 0 0 0 0 0 0 0 0 0 0 0 -0.00104718 -0.000457509 -0.000479756 -0.000114289 -0.000399308 -0.000804036 -0.000308386 -0.000308413 0 0 0 0 0 0 0 0 0 0 0 0 0 0 0 0 0 0 0 0 0 0 0 0 0 0 0 0 0 0 0 0 -0.00134711 -0.000466367 -0.000488776 -0.000184022 -0.000399514 -0.000959232 -0.000316889 -0.000319002 0 0 0 0 0 0 0 0 0 0 0 0 0 0 0 0 0 0 0 0 0 0 0 0 0 0 0 0 0 0 0 0 -0.00182645 -0.000472209 -0.000503453 -0.00024559 -0.000399723 -0.00114756 -0.000322674 -0.000335682 0 0 0 0 0 0 0 0 0 0 0 0 0 0 0 0 0 0 0 0 0 0 0 0 0 0 0 0 0 0 0 0 -0.00262755 -0.000475943 -0.000526653 -0.000297686 -0.000400037 -0.00135304 -0.000326471 -0.000360879 0 0 0 0 0 0 0 0 0 0 0 0 0 0 0 0 0 0 0 0 0 0 0 0 0 0 0 0 0 0 0 0 -0.00402966 -0.000478256 -0.000562368 -0.000340048 -0.000400603 -0.0015113 -0.000328876 -0.000397373 0 0 0 0 0 0 0 0 0 0 0 0 0 0 0 0 0 0 0 0 0 0 0 0 0 0 0 0 0 0 0 0 -0.00647941 -0.000479647 -0.000616123 -0.000373226 -0.000401656 -0.00143631 -0.000330348 -0.000448094 0 0 0 0 0 0 0 0 0 0 0 0 0 0 0 0 0 0 0 0 0 0 0 0 0 0 0 0 0 0 0 0 -0.00932553 -0.000480459 -0.000695625 -0.000398296 -0.000403585 -0.000741385 -0.000331223 -0.000515861 0 0 0 0 0 0 0 0 0 0 0 0 0 0 0 0 0 0 0 0 0 0 0 0 0 0 0 0 0 0 0 0 -4.43328e-05 -0.000480926 -0.000811858 -0.000416596 -0.000407008 -2.78911e-05 -0.000331734 -0.000603081 0 0 0 0 0 0 0 0 0 0 0 0 0 0 0 0 0 0 0 0 0 0 0 0 0 0 0 0 0 0 0 0 -0.000129935 -0.0004812 -0.000980927 -0.000429511 -0.000412873 -8.27386e-05 -0.000332041 -0.000711265 0 0 0 0 0 0 0 0 0 0 0 0 0 0 0 0 0 0 0 0 0 0 0 0 0 0 0 0 0 0 0 0 -0.000207949 -0.000481388 -0.0012269 -0.000438327 -0.000422568 -0.000135007 -0.000332261 -0.000839738 0 0 0 0 0 0 0 0 0 0 0 0 0 0 0 0 0 0 0 0 0 0 0 0 0 0 0 0 0 0 0 0 -0.000275588 -0.000481574 -0.00158518 -0.00044415 -0.000438022 -0.000182986 -0.00033249 -0.000981884 0 0 0 0 0 0 0 0 0 0 0 0 0 0 0 0 0 0 0 0 0 0 0 0 0 0 0 0 0 0 0 0 -0.000331736 -0.000481847 -0.00210161 -0.000447873 -0.000461795 -0.000225307 -0.000332839 -0.00111528 0 0 0 0 0 0 0 0 0 0 0 0 0 0 0 0 0 0 0 0 0 0 0 0 0 0 0 0 0 0 0 0 -0.000376566 -0.000482337 -0.00280136 -0.000450176 -0.000497154 -0.000261158 -0.000333472 -0.00117937 0 0 0 0 0 0 0 0 0 0 0 0 0 0 0 0 0 0 0 0 0 0 0 0 0 0 0 0 0 0 0 0 -0.000411103 -0.000483251 -0.00350308 -0.000451557 -0.000548133 -0.000290336 -0.000334648 -0.00103821 0 0 0 0 0 0 0 0 0 0 0 0 0 0 0 0 0 0 0 0 0 0 0 0 0 0 0 0 0 0 0 0 -0.000436831 -0.000484934 -0.0029655 -0.000452361 -0.000619654 -0.000313172 -0.000336792 -0.000480012 0 0 0 0 0 0 0 0 0 0 0 0 0 0 0 0 0 0 0 0 0 0 0 0 0 0 0 0 0 0 0 0 -0.00045539 -0.000487954 -4.08279e-05 -0.000452821 -0.000717694 -0.000330379 -0.000340574 -2.00697e-05 0 0 0 0 0 0 0 0 0 0 0 0 0 0 0 0 0 0 0 0 0 0 0 0 0 0 0 0 0 0 0 0 -0.000468364 -0.000493208 -0.000119882 -0.000453091 -0.000849421 -0.000342873 -0.000347001 -6.0009e-05 0 0 0 0 0 0 0 0 0 0 0 0 0 0 0 0 0 0 0 0 0 0 0 0 0 0 0 0 0 0 0 0 -0.000477154 -0.000502075 -0.00019254 -0.000453275 -0.00102265 -0.000351623 -0.000357509 -9.91134e-05 0 0 0 0 0 0 0 0 0 0 0 0 0 0 0 0 0 0 0 0 0 0 0 0 0 0 0 0 0 0 0 0 -0.000482929 -0.000516603 -0.000256235 -0.000453459 -0.00124262 -0.000357537 -0.00037402 -0.000136231 0 0 0 0 0 0 0 0 0 0 0 0 0 0 0 0 0 0 0 0 0 0 0 0 0 0 0 0 0 0 0 0 -0.000486606 -0.000539755 -0.000309748 -0.000453732 -0.00150012 -0.000361397 -0.000398954 -0.000170113 0 0 0 0 0 0 0 0 0 0 0 0 0 0 0 0 0 0 0 0 0 0 0 0 0 0 0 0 0 0 0 0 -0.000488877 -0.000575754 -0.000352991 -0.000454224 -0.00173415 -0.000363832 -0.000435174 -0.000199743 0 0 0 0 0 0 0 0 0 0 0 0 0 0 0 0 0 0 0 0 0 0 0 0 0 0 0 0 0 0 0 0 -0.000491924 -0.00129211 -0.00045246 -0.00047418 -0.000152396 -0.000367231 -0.000898684 -0.000278868 0 0 0 0 0 0 0 0 0 0 0 0 0 0 0 0 0 0 0 0 0 0 0 0 0 0 0 0 0 0 0 0 -0.0004921 -0.00171071 -0.000458348 -0.000488718 -0.000205341 -0.000367455 -0.00106125 -0.00028429 0 0 0 0 0 0 0 0 0 0 0 0 0 0 0 0 0 0 0 0 0 0 0 0 0 0 0 0 0 0 0 0 -0.000492359 -0.00235979 -0.000462122 -0.000511618 -0.000251328 -0.000367794 -0.00122607 -0.000287847 0 0 0 0 0 0 0 0 0 0 0 0 0 0 0 0 0 0 0 0 0 0 0 0 0 0 0 0 0 0 0 0 -0.000492826 -0.00335809 -0.000464465 -0.000546648 -0.000289702 -0.000368403 -0.00132963 -0.000290096 0 0 0 0 0 0 0 0 0 0 0 0 0 0 0 0 0 0 0 0 0 0 0 0 0 0 0 0 0 0 0 0 -0.000493702 -0.0047063 -0.000465877 -0.00059886 -0.0003205 -0.000369534 -0.00121214 -0.000291468 0 0 0 0 0 0 0 0 0 0 0 0 0 0 0 0 0 0 0 0 0 0 0 0 0 0 0 0 0 0 0 0 -0.000495324 -0.0050643 -0.000466703 -0.000675035 -0.000344302 -0.000371596 -0.000588291 -0.00029228 0 0 0 0 0 0 0 0 0 0 0 0 0 0 0 0 0 0 0 0 0 0 0 0 0 0 0 0 0 0 0 0 -0.000498249 -4.27959e-05 -0.000467179 -0.000784388 -0.000362036 -0.000375236 -2.39843e-05 -0.000292752 0 0 0 0 0 0 0 0 0 0 0 0 0 0 0 0 0 0 0 0 0 0 0 0 0 0 0 0 0 0 0 0 -0.000503369 -0.00012551 -0.00046746 -0.000939652 -0.000374786 -0.000381433 -7.14128e-05 -0.000293034 0 0 0 0 0 0 0 0 0 0 0 0 0 0 0 0 0 0 0 0 0 0 0 0 0 0 0 0 0 0 0 0 -0.000512062 -0.000201156 -0.000467654 -0.00115831 -0.000383637 -0.000391596 -0.000117187 -0.000293235 0 0 0 0 0 0 0 0 0 0 0 0 0 0 0 0 0 0 0 0 0 0 0 0 0 0 0 0 0 0 0 0 -0.000526402 -0.000267051 -0.000467846 -0.0014625 -0.000389575 -0.000407641 -0.000159879 -0.000293446 0 0 0 0 0 0 0 0 0 0 0 0 0 0 0 0 0 0 0 0 0 0 0 0 0 0 0 0 0 0 0 0 -0.000549431 -0.000322038 -0.00046813 -0.00187126 -0.000393424 -0.000432043 -0.000198169 -0.000293774 0 0 0 0 0 0 0 0 0 0 0 0 0 0 0 0 0 0 0 0 0 0 0 0 0 0 0 0 0 0 0 0 -0.00058555 -0.000366174 -0.000468637 -0.00235971 -0.000395838 -0.000467838 -0.000231126 -0.000294374 0 0 0 0 0 0 0 0 0 0 0 0 0 0 0 0 0 0 0 0 0 0 0 0 0 0 0 0 0 0 0 0 -0.000641125 -0.000400353 -0.000469582 -0.00269376 -0.000397302 -0.000518597 -0.000258339 -0.000295502 0 0 0 0 0 0 0 0 0 0 0 0 0 0 0 0 0 0 0 0 0 0 0 0 0 0 0 0 0 0 0 0 -0.000725532 -0.000425942 -0.000471317 -0.00190574 -0.000398165 -0.000588414 -0.000279912 -0.000297582 0 0 0 0 0 0 0 0 0 0 0 0 0 0 0 0 0 0 0 0 0 0 0 0 0 0 0 0 0 0 0 0 -0.000853105 -0.000444485 -0.000474419 -3.91588e-05 -0.000398664 -0.0006819 -0.000296345 -0.000301288 0 0 0 0 0 0 0 0 0 0 0 0 0 0 0 0 0 0 0 0 0 0 0 0 0 0 0 0 0 0 0 0 -0.00104698 -0.000457505 -0.000479792 -0.000115159 -0.000398962 -0.00080404 -0.000308389 -0.000307642 0 0 0 0 0 0 0 0 0 0 0 0 0 0 0 0 0 0 0 0 0 0 0 0 0 0 0 0 0 0 0 0 -0.00134698 -0.000466363 -0.000488809 -0.000185394 -0.00039917 -0.000959235 -0.000316891 -0.000318109 0 0 0 0 0 0 0 0 0 0 0 0 0 0 0 0 0 0 0 0 0 0 0 0 0 0 0 0 0 0 0 0 -0.00182638 -0.000472205 -0.000503483 -0.000247365 -0.000399382 -0.00114756 -0.000322674 -0.000334648 0 0 0 0 0 0 0 0 0 0 0 0 0 0 0 0 0 0 0 0 0 0 0 0 0 0 0 0 0 0 0 0 -0.00262751 -0.000475939 -0.000526678 -0.000299754 -0.0003997 -0.00135304 -0.00032647 -0.000359702 0 0 0 0 0 0 0 0 0 0 0 0 0 0 0 0 0 0 0 0 0 0 0 0 0 0 0 0 0 0 0 0 -0.00402964 -0.000478252 -0.000562388 -0.000342304 -0.000400273 -0.00151131 -0.000328874 -0.000396077 0 0 0 0 0 0 0 0 0 0 0 0 0 0 0 0 0 0 0 0 0 0 0 0 0 0 0 0 0 0 0 0 -0.00647941 -0.000479642 -0.000616138 -0.000375579 -0.000401338 -0.00143631 -0.000330346 -0.00044674 0 0 0 0 0 0 0 0 0 0 0 0 0 0 0 0 0 0 0 0 0 0 0 0 0 0 0 0 0 0 0 0 -0.00932553 -0.000480455 -0.000695636 -0.000400677 -0.000403284 -0.000741385 -0.00033122 -0.000514537 0 0 0 0 0 0 0 0 0 0 0 0 0 0 0 0 0 0 0 0 0 0 0 0 0 0 0 0 0 0 0 0 -4.42414e-05 -0.000480922 -0.000811865 -0.00041896 -0.000406733 -2.78909e-05 -0.000331731 -0.000601887 0 0 0 0 0 0 0 0 0 0 0 0 0 0 0 0 0 0 0 0 0 0 0 0 0 0 0 0 0 0 0 0 -0.000129671 -0.000481196 -0.000980931 -0.000431833 -0.000412636 -8.2738e-05 -0.000332038 -0.000710287 0 0 0 0 0 0 0 0 0 0 0 0 0 0 0 0 0 0 0 0 0 0 0 0 0 0 0 0 0 0 0 0 -0.000207539 -0.000481384 -0.0012269 -0.000440598 -0.00042238 -0.000135006 -0.000332257 -0.000839023 0 0 0 0 0 0 0 0 0 0 0 0 0 0 0 0 0 0 0 0 0 0 0 0 0 0 0 0 0 0 0 0 -0.000275066 -0.00048157 -0.00158518 -0.000446371 -0.000437892 -0.000182984 -0.000332486 -0.000981428 0 0 0 0 0 0 0 0 0 0 0 0 0 0 0 0 0 0 0 0 0 0 0 0 0 0 0 0 0 0 0 0 -0.000331136 -0.000481843 -0.00210161 -0.00045005 -0.000461731 -0.000225306 -0.000332836 -0.00111504 0 0 0 0 0 0 0 0 0 0 0 0 0 0 0 0 0 0 0 0 0 0 0 0 0 0 0 0 0 0 0 0 -0.000375919 -0.000482333 -0.00280136 -0.000452318 -0.000497152 -0.000261157 -0.000333468 -0.00117926 0 0 0 0 0 0 0 0 0 0 0 0 0 0 0 0 0 0 0 0 0 0 0 0 0 0 0 0 0 0 0 0 -0.000410433 -0.000483247 -0.00350308 -0.000453673 -0.000548184 -0.000290334 -0.000334643 -0.00103818 0 0 0 0 0 0 0 0 0 0 0 0 0 0 0 0 0 0 0 0 0 0 0 0 0 0 0 0 0 0 0 0 -0.000436156 -0.00048493 -0.0029655 -0.000454459 -0.000619737 -0.000313171 -0.000336785 -0.000480006 0 0 0 0 0 0 0 0 0 0 0 0 0 0 0 0 0 0 0 0 0 0 0 0 0 0 0 0 0 0 0 0 -0.00045472 -0.00048795 -4.08415e-05 -0.000454907 -0.000717789 -0.000330378 -0.000340565 -2.00484e-05 0 0 0 0 0 0 0 0 0 0 0 0 0 0 0 0 0 0 0 0 0 0 0 0 0 0 0 0 0 0 0 0 -0.000467704 -0.000493205 -0.000119921 -0.000455168 -0.000849504 -0.000342872 -0.00034699 -5.99552e-05 0 0 0 0 0 0 0 0 0 0 0 0 0 0 0 0 0 0 0 0 0 0 0 0 0 0 0 0 0 0 0 0 -0.000476508 -0.000502072 -0.000192601 -0.000455345 -0.00102271 -0.000351622 -0.000357495 -9.90436e-05 0 0 0 0 0 0 0 0 0 0 0 0 0 0 0 0 0 0 0 0 0 0 0 0 0 0 0 0 0 0 0 0 -0.000482295 -0.0005166 -0.000256313 -0.000455521 -0.00124265 -0.000357536 -0.000374001 -0.000136155 0 0 0 0 0 0 0 0 0 0 0 0 0 0 0 0 0 0 0 0 0 0 0 0 0 0 0 0 0 0 0 0 -0.000485982 -0.000539753 -0.000309839 -0.000455783 -0.00150013 -0.000361396 -0.000398932 -0.000170027 0 0 0 0 0 0 0 0 0 0 0 0 0 0 0 0 0 0 0 0 0 0 0 0 0 0 0 0 0 0 0 0 -0.00048826 -0.000575752 -0.000353088 -0.000456258 -0.00173414 -0.000363831 -0.000435147 -0.000199634 0 0 0 0 0 0 0 0 0 0 0 0 0 0 0 0 0 0 0 0 0 0 0 0 0 0 0 0 0 0 0 0 -0.000489626 -0.00063059 -0.000386787 -0.000457152 -0.00173222 -0.000365316 -0.000485836 -0.000224387 0 0 0 0 0 0 0 0 0 0 0 0 0 0 0 0 0 0 0 0 0 0 0 0 0 0 0 0 0 0 0 0 -0.000490421 -0.000712887 -0.000412157 -0.000458812 -0.000967541 -0.000366196 -0.00055438 -0.000244192 0 0 0 0 0 0 0 0 0 0 0 0 0 0 0 0 0 0 0 0 0 0 0 0 0 0 0 0 0 0 0 0 -0.000490876 -0.000835416 -0.000430632 -0.000461804 -3.17119e-05 -0.000366708 -0.000644198 -0.000259375 0 0 0 0 0 0 0 0 0 0 0 0 0 0 0 0 0 0 0 0 0 0 0 0 0 0 0 0 0 0 0 0 -0.000491143 -0.0010179 -0.000443658 -0.000467024 -9.37627e-05 -0.000367014 -0.000758415 -0.00027054 0 0 0 0 0 0 0