# vtk DataFile Version 2.0
Velocidad
ASCII

DATASET STRUCTURED_GRID
DIMENSIONS   40   40   30

POINTS   48000   double
0.0125   0.0125   0.0166667
0.0375   0.0125   0.0166667
0.0625   0.0125   0.0166667
0.0875   0.0125   0.0166667
0.1125   0.0125   0.0166667
0.1375   0.0125   0.0166667
0.1625   0.0125   0.0166667
0.1875   0.0125   0.0166667
0.2125   0.0125   0.0166667
0.2375   0.0125   0.0166667
0.2625   0.0125   0.0166667
0.2875   0.0125   0.0166667
0.3125   0.0125   0.0166667
0.3375   0.0125   0.0166667
0.3625   0.0125   0.0166667
0.3875   0.0125   0.0166667
0.4125   0.0125   0.0166667
0.4375   0.0125   0.0166667
0.4625   0.0125   0.0166667
0.4875   0.0125   0.0166667
0.5125   0.0125   0.0166667
0.5375   0.0125   0.0166667
0.5625   0.0125   0.0166667
0.5875   0.0125   0.0166667
0.6125   0.0125   0.0166667
0.6375   0.0125   0.0166667
0.6625   0.0125   0.0166667
0.6875   0.0125   0.0166667
0.7125   0.0125   0.0166667
0.7375   0.0125   0.0166667
0.7625   0.0125   0.0166667
0.7875   0.0125   0.0166667
0.8125   0.0125   0.0166667
0.8375   0.0125   0.0166667
0.8625   0.0125   0.0166667
0.8875   0.0125   0.0166667
0.9125   0.0125   0.0166667
0.9375   0.0125   0.0166667
0.9625   0.0125   0.0166667
0.9875   0.0125   0.0166667
0.0125   0.0375   0.0166667
0.0375   0.0375   0.0166667
0.0625   0.0375   0.0166667
0.0875   0.0375   0.0166667
0.1125   0.0375   0.0166667
0.1375   0.0375   0.0166667
0.1625   0.0375   0.0166667
0.1875   0.0375   0.0166667
0.2125   0.0375   0.0166667
0.2375   0.0375   0.0166667
0.2625   0.0375   0.0166667
0.2875   0.0375   0.0166667
0.3125   0.0375   0.0166667
0.3375   0.0375   0.0166667
0.3625   0.0375   0.0166667
0.3875   0.0375   0.0166667
0.4125   0.0375   0.0166667
0.4375   0.0375   0.0166667
0.4625   0.0375   0.0166667
0.4875   0.0375   0.0166667
0.5125   0.0375   0.0166667
0.5375   0.0375   0.0166667
0.5625   0.0375   0.0166667
0.5875   0.0375   0.0166667
0.6125   0.0375   0.0166667
0.6375   0.0375   0.0166667
0.6625   0.0375   0.0166667
0.6875   0.0375   0.0166667
0.7125   0.0375   0.0166667
0.7375   0.0375   0.0166667
0.7625   0.0375   0.0166667
0.7875   0.0375   0.0166667
0.8125   0.0375   0.0166667
0.8375   0.0375   0.0166667
0.8625   0.0375   0.0166667
0.8875   0.0375   0.0166667
0.9125   0.0375   0.0166667
0.9375   0.0375   0.0166667
0.9625   0.0375   0.0166667
0.9875   0.0375   0.0166667
0.0125   0.0625   0.0166667
0.0375   0.0625   0.0166667
0.0625   0.0625   0.0166667
0.0875   0.0625   0.0166667
0.1125   0.0625   0.0166667
0.1375   0.0625   0.0166667
0.1625   0.0625   0.0166667
0.1875   0.0625   0.0166667
0.2125   0.0625   0.0166667
0.2375   0.0625   0.0166667
0.2625   0.0625   0.0166667
0.2875   0.0625   0.0166667
0.3125   0.0625   0.0166667
0.3375   0.0625   0.0166667
0.3625   0.0625   0.0166667
0.3875   0.0625   0.0166667
0.4125   0.0625   0.0166667
0.4375   0.0625   0.0166667
0.4625   0.0625   0.0166667
0.4875   0.0625   0.0166667
0.5125   0.0625   0.0166667
0.5375   0.0625   0.0166667
0.5625   0.0625   0.0166667
0.5875   0.0625   0.0166667
0.6125   0.0625   0.0166667
0.6375   0.0625   0.0166667
0.6625   0.0625   0.0166667
0.6875   0.0625   0.0166667
0.7125   0.0625   0.0166667
0.7375   0.0625   0.0166667
0.7625   0.0625   0.0166667
0.7875   0.0625   0.0166667
0.8125   0.0625   0.0166667
0.8375   0.0625   0.0166667
0.8625   0.0625   0.0166667
0.8875   0.0625   0.0166667
0.9125   0.0625   0.0166667
0.9375   0.0625   0.0166667
0.9625   0.0625   0.0166667
0.9875   0.0625   0.0166667
0.0125   0.0875   0.0166667
0.0375   0.0875   0.0166667
0.0625   0.0875   0.0166667
0.0875   0.0875   0.0166667
0.1125   0.0875   0.0166667
0.1375   0.0875   0.0166667
0.1625   0.0875   0.0166667
0.1875   0.0875   0.0166667
0.2125   0.0875   0.0166667
0.2375   0.0875   0.0166667
0.2625   0.0875   0.0166667
0.2875   0.0875   0.0166667
0.3125   0.0875   0.0166667
0.3375   0.0875   0.0166667
0.3625   0.0875   0.0166667
0.3875   0.0875   0.0166667
0.4125   0.0875   0.0166667
0.4375   0.0875   0.0166667
0.4625   0.0875   0.0166667
0.4875   0.0875   0.0166667
0.5125   0.0875   0.0166667
0.5375   0.0875   0.0166667
0.5625   0.0875   0.0166667
0.5875   0.0875   0.0166667
0.6125   0.0875   0.0166667
0.6375   0.0875   0.0166667
0.6625   0.0875   0.0166667
0.6875   0.0875   0.0166667
0.7125   0.0875   0.0166667
0.7375   0.0875   0.0166667
0.7625   0.0875   0.0166667
0.7875   0.0875   0.0166667
0.8125   0.0875   0.0166667
0.8375   0.0875   0.0166667
0.8625   0.0875   0.0166667
0.8875   0.0875   0.0166667
0.9125   0.0875   0.0166667
0.9375   0.0875   0.0166667
0.9625   0.0875   0.0166667
0.9875   0.0875   0.0166667
0.0125   0.1125   0.0166667
0.0375   0.1125   0.0166667
0.0625   0.1125   0.0166667
0.0875   0.1125   0.0166667
0.1125   0.1125   0.0166667
0.1375   0.1125   0.0166667
0.1625   0.1125   0.0166667
0.1875   0.1125   0.0166667
0.2125   0.1125   0.0166667
0.2375   0.1125   0.0166667
0.2625   0.1125   0.0166667
0.2875   0.1125   0.0166667
0.3125   0.1125   0.0166667
0.3375   0.1125   0.0166667
0.3625   0.1125   0.0166667
0.3875   0.1125   0.0166667
0.4125   0.1125   0.0166667
0.4375   0.1125   0.0166667
0.4625   0.1125   0.0166667
0.4875   0.1125   0.0166667
0.5125   0.1125   0.0166667
0.5375   0.1125   0.0166667
0.5625   0.1125   0.0166667
0.5875   0.1125   0.0166667
0.6125   0.1125   0.0166667
0.6375   0.1125   0.0166667
0.6625   0.1125   0.0166667
0.6875   0.1125   0.0166667
0.7125   0.1125   0.0166667
0.7375   0.1125   0.0166667
0.7625   0.1125   0.0166667
0.7875   0.1125   0.0166667
0.8125   0.1125   0.0166667
0.8375   0.1125   0.0166667
0.8625   0.1125   0.0166667
0.8875   0.1125   0.0166667
0.9125   0.1125   0.0166667
0.9375   0.1125   0.0166667
0.9625   0.1125   0.0166667
0.9875   0.1125   0.0166667
0.0125   0.1375   0.0166667
0.0375   0.1375   0.0166667
0.0625   0.1375   0.0166667
0.0875   0.1375   0.0166667
0.1125   0.1375   0.0166667
0.1375   0.1375   0.0166667
0.1625   0.1375   0.0166667
0.1875   0.1375   0.0166667
0.2125   0.1375   0.0166667
0.2375   0.1375   0.0166667
0.2625   0.1375   0.0166667
0.2875   0.1375   0.0166667
0.3125   0.1375   0.0166667
0.3375   0.1375   0.0166667
0.3625   0.1375   0.0166667
0.3875   0.1375   0.0166667
0.4125   0.1375   0.0166667
0.4375   0.1375   0.0166667
0.4625   0.1375   0.0166667
0.4875   0.1375   0.0166667
0.5125   0.1375   0.0166667
0.5375   0.1375   0.0166667
0.5625   0.1375   0.0166667
0.5875   0.1375   0.0166667
0.6125   0.1375   0.0166667
0.6375   0.1375   0.0166667
0.6625   0.1375   0.0166667
0.6875   0.1375   0.0166667
0.7125   0.1375   0.0166667
0.7375   0.1375   0.0166667
0.7625   0.1375   0.0166667
0.7875   0.1375   0.0166667
0.8125   0.1375   0.0166667
0.8375   0.1375   0.0166667
0.8625   0.1375   0.0166667
0.8875   0.1375   0.0166667
0.9125   0.1375   0.0166667
0.9375   0.1375   0.0166667
0.9625   0.1375   0.0166667
0.9875   0.1375   0.0166667
0.0125   0.1625   0.0166667
0.0375   0.1625   0.0166667
0.0625   0.1625   0.0166667
0.0875   0.1625   0.0166667
0.1125   0.1625   0.0166667
0.1375   0.1625   0.0166667
0.1625   0.1625   0.0166667
0.1875   0.1625   0.0166667
0.2125   0.1625   0.0166667
0.2375   0.1625   0.0166667
0.2625   0.1625   0.0166667
0.2875   0.1625   0.0166667
0.3125   0.1625   0.0166667
0.3375   0.1625   0.0166667
0.3625   0.1625   0.0166667
0.3875   0.1625   0.0166667
0.4125   0.1625   0.0166667
0.4375   0.1625   0.0166667
0.4625   0.1625   0.0166667
0.4875   0.1625   0.0166667
0.5125   0.1625   0.0166667
0.5375   0.1625   0.0166667
0.5625   0.1625   0.0166667
0.5875   0.1625   0.0166667
0.6125   0.1625   0.0166667
0.6375   0.1625   0.0166667
0.6625   0.1625   0.0166667
0.6875   0.1625   0.0166667
0.7125   0.1625   0.0166667
0.7375   0.1625   0.0166667
0.7625   0.1625   0.0166667
0.7875   0.1625   0.0166667
0.8125   0.1625   0.0166667
0.8375   0.1625   0.0166667
0.8625   0.1625   0.0166667
0.8875   0.1625   0.0166667
0.9125   0.1625   0.0166667
0.9375   0.1625   0.0166667
0.9625   0.1625   0.0166667
0.9875   0.1625   0.0166667
0.0125   0.1875   0.0166667
0.0375   0.1875   0.0166667
0.0625   0.1875   0.0166667
0.0875   0.1875   0.0166667
0.1125   0.1875   0.0166667
0.1375   0.1875   0.0166667
0.1625   0.1875   0.0166667
0.1875   0.1875   0.0166667
0.2125   0.1875   0.0166667
0.2375   0.1875   0.0166667
0.2625   0.1875   0.0166667
0.2875   0.1875   0.0166667
0.3125   0.1875   0.0166667
0.3375   0.1875   0.0166667
0.3625   0.1875   0.0166667
0.3875   0.1875   0.0166667
0.4125   0.1875   0.0166667
0.4375   0.1875   0.0166667
0.4625   0.1875   0.0166667
0.4875   0.1875   0.0166667
0.5125   0.1875   0.0166667
0.5375   0.1875   0.0166667
0.5625   0.1875   0.0166667
0.5875   0.1875   0.0166667
0.6125   0.1875   0.0166667
0.6375   0.1875   0.0166667
0.6625   0.1875   0.0166667
0.6875   0.1875   0.0166667
0.7125   0.1875   0.0166667
0.7375   0.1875   0.0166667
0.7625   0.1875   0.0166667
0.7875   0.1875   0.0166667
0.8125   0.1875   0.0166667
0.8375   0.1875   0.0166667
0.8625   0.1875   0.0166667
0.8875   0.1875   0.0166667
0.9125   0.1875   0.0166667
0.9375   0.1875   0.0166667
0.9625   0.1875   0.0166667
0.9875   0.1875   0.0166667
0.0125   0.2125   0.0166667
0.0375   0.2125   0.0166667
0.0625   0.2125   0.0166667
0.0875   0.2125   0.0166667
0.1125   0.2125   0.0166667
0.1375   0.2125   0.0166667
0.1625   0.2125   0.0166667
0.1875   0.2125   0.0166667
0.2125   0.2125   0.0166667
0.2375   0.2125   0.0166667
0.2625   0.2125   0.0166667
0.2875   0.2125   0.0166667
0.3125   0.2125   0.0166667
0.3375   0.2125   0.0166667
0.3625   0.2125   0.0166667
0.3875   0.2125   0.0166667
0.4125   0.2125   0.0166667
0.4375   0.2125   0.0166667
0.4625   0.2125   0.0166667
0.4875   0.2125   0.0166667
0.5125   0.2125   0.0166667
0.5375   0.2125   0.0166667
0.5625   0.2125   0.0166667
0.5875   0.2125   0.0166667
0.6125   0.2125   0.0166667
0.6375   0.2125   0.0166667
0.6625   0.2125   0.0166667
0.6875   0.2125   0.0166667
0.7125   0.2125   0.0166667
0.7375   0.2125   0.0166667
0.7625   0.2125   0.0166667
0.7875   0.2125   0.0166667
[...]
POINT_DATA   48000
VECTORS Velocidad double

0.00118324 2.53239e-07 -2.45324e-08
0.00348768 4.5888e-07 -2.7132e-08
0.00560883 5.17072e-07 -2.84111e-08
0.00744615 4.87259e-07 -2.89468e-08
0.00893813 4.11922e-07 -2.85242e-08
0.0100675 3.19848e-07 -2.67608e-08
0.0108594 2.30028e-07 -2.3521e-08
0.0113711 1.5336e-07 -1.89646e-08
0.0116742 9.39804e-08 -1.34496e-08
0.0118386 5.11e-08 -7.44662e-09
0.0119198 2.18757e-08 0
0.0119561 5.61037e-09 0
0.0119709 -8.08903e-10 0
0.0119763 -2.14762e-09 0
0.0119781 -1.20598e-09 0
0.0119787 -4.77519e-10 0
0.0119788 -1.99885e-11 0
0.0119788 7.7819e-10 0
0.0119784 4.96228e-09 0
0.0119933 2.58127e-08 0
0.0119817 1.13658e-07 0
0.0119626 4.44241e-07 0
0.0119716 -1.26637e-07 0
0.0119741 -2.33596e-07 0
0.0119759 -2.07477e-07 0
0.011977 -1.54396e-07 0
0.0119777 -1.07632e-07 0
0.0119779 -7.20834e-08 0
0.0119773 -4.59203e-08 0
0.0119744 -2.7527e-08 0
0.0119663 -2.09282e-08 0
0.0119441 -3.37057e-08 0
0.011886 -6.7161e-08 0
0.0117475 -1.43567e-07 0
0.0114428 -2.73969e-07 0
0.010829 -4.76151e-07 0
0.00970654 -7.66856e-07 0
0.00786498 -1.15577e-06 0
0.00519477 -1.59994e-06 0
0.00182484 -2.00394e-06 0
0.00338395 7.21372e-07 -3.57164e-08
0.0099856 1.29847e-06 -4.09259e-08
0.0160876 1.47164e-06 -4.41743e-08
0.0214058 1.40267e-06 -4.64795e-08
0.0257607 1.20569e-06 -4.71082e-08
0.0290904 9.56959e-07 -4.51316e-08
0.0314519 7.07076e-07 -4.02232e-08
0.0329956 4.8595e-07 -3.27569e-08
0.033921 3.06281e-07 -2.35579e-08
0.0344281 1.68522e-07 -1.36636e-08
0.0346812 6.91505e-08 0
0.0347958 2.29786e-08 0
0.0348428 3.64584e-09 0
0.0348603 -1.73694e-09 0
0.0348662 -9.62044e-10 0
0.034868 4.60628e-11 0
0.0348685 6.30191e-10 0
0.0348684 1.95133e-09 0
0.0348678 1.01363e-08 0
0.0348843 4.87026e-08 0
0.0348712 2.07476e-07 0
0.0348473 5.49224e-07 0
0.0348563 7.67823e-08 0
0.0348609 -8.55939e-08 0
0.0348639 -1.19441e-07 0
0.0348658 -1.11657e-07 0
0.0348668 -9.42157e-08 0
0.0348669 -7.51558e-08 0
0.0348651 -5.72664e-08 0
0.034858 -4.6499e-08 0
0.034837 -6.00368e-08 0
0.0347782 -1.24948e-07 0
0.0346238 -2.46478e-07 0
0.0342505 -4.65471e-07 0
0.0334171 -8.19155e-07 0
0.0317108 -1.34887e-06 0
0.0285349 -2.07559e-06 0
0.0232296 -2.95171e-06 0
0.0154091 -3.71967e-06 0
0.00542664 -3.6729e-06 0
0.0051991 1.01971e-06 -3.89473e-08
0.0153628 1.84379e-06 -4.48324e-08
0.0248067 2.10851e-06 -4.93787e-08
0.0331025 2.03501e-06 -5.3195e-08
0.0399693 1.77791e-06 -5.5056e-08
0.0452883 1.43961e-06 -5.35917e-08
0.0491164 1.08866e-06 -4.82927e-08
0.0516585 7.6707e-07 -3.96405e-08
0.053207 4.94879e-07 -2.87585e-08
0.0540688 2.7676e-07 -1.70773e-08
0.0545053 1.14003e-07 -1.60788e-09
0.0547058 4.41874e-08 -3.1586e-10
0.0547893 1.37702e-08 3.85768e-10
0.0548207 3.42015e-09 5.40298e-10
0.0548314 1.83906e-09 3.25474e-10
0.0548346 1.78854e-09 3.56277e-11
0.0548355 1.91311e-09 -4.47583e-10
0.0548355 4.47821e-09 -2.20284e-09
0.0548348 2.09169e-08 -1.55817e-08
0.0548518 8.91476e-08 -6.651e-08
0.0548384 3.67761e-07 -6.66343e-07
0.0548134 4.79783e-07 -4.39636e-07
0.054822 6.71409e-07 -2.32342e-07
0.0548269 5.64113e-07 -1.14414e-07
0.0548303 3.92482e-07 -5.6862e-08
0.0548325 2.34766e-07 -2.91134e-08
0.0548336 1.17554e-07 -1.52505e-08
0.0548337 4.25281e-08 -7.82195e-09
0.0548314 -1.40956e-09 -2.82883e-09
0.054822 -3.57369e-08 3.22961e-09
0.0547938 -9.40182e-08 3.14243e-08
0.0547135 -2.16279e-07 3.33748e-08
0.0544993 -4.14481e-07 3.52248e-08
0.0539714 -7.29838e-07 4.40563e-08
0.0527687 -1.21407e-06 6.49822e-08
0.0502509 -1.90996e-06 1.07403e-07
0.0454511 -2.80838e-06 1.91189e-07
0.0372347 -3.75056e-06 3.58795e-07
0.0248501 -4.23328e-06 6.58496e-07
0.00878524 -3.08422e-06 1.19165e-06
0.00655537 1.09896e-06 -3.98428e-08
0.0193949 2.00823e-06 -4.62234e-08
0.0313839 2.31668e-06 -5.17543e-08
0.0419949 2.25803e-06 -5.67167e-08
0.0508684 1.99573e-06 -5.95488e-08
0.0578287 1.63785e-06 -5.85909e-08
0.06291 1.25729e-06 -5.31955e-08
0.0663366 9.0004e-07 -4.38943e-08
0.068457 5.89958e-07 -3.19984e-08
0.0696554 3.35482e-07 -1.91971e-08
0.0702716 1.427e-07 -4.32884e-09
0.0705587 5.90188e-08 2.90718e-09
0.0706797 2.19883e-08 5.61603e-09
0.0707259 8.06794e-09 5.34427e-09
0.0707417 4.19176e-09 2.71982e-09
0.0707466 3.00787e-09 9.69085e-10
0.0707479 3.89594e-09 -4.8119e-10
0.0707481 1.50178e-08 -4.24908e-09
0.0707474 7.14732e-08 -2.0933e-08
0.0707646 2.85635e-07 -9.58242e-08
0.0707514 1.13426e-06 -4.75215e-07
0.070726 1.56019e-06 -1.94934e-07
0.0707341 1.66812e-06 -2.6278e-07
0.0707388 1.42051e-06 -1.92553e-07
0.0707423 1.03415e-06 -1.23848e-07
0.0707446 6.62774e-07 -7.53504e-08
0.070746 3.7477e-07 -4.44433e-08
0.0707461 1.81319e-07 -2.49272e-08
0.0707437 6.19329e-08 -1.10894e-08
0.0707337 -2.20415e-08 3.95751e-09
0.0707029 -1.2073e-07 3.65358e-08
0.0706136 -2.66582e-07 6.32158e-08
0.0703711 -4.88597e-07 7.23878e-08
0.0697614 -8.34152e-07 8.33732e-08
0.0683428 -1.34996e-06 1.06377e-07
0.0653039 -2.06751e-06 1.48075e-07
0.0593659 -2.95018e-06 2.11705e-07
0.0489425 -3.78491e-06 2.75881e-07
0.0328677 -4.00706e-06 2.5243e-07
0.0116661 -2.59412e-06 -2.98022e-07
0.0074847 1.0371e-06 -4.04491e-08
0.0221664 1.90408e-06 -4.77525e-08
0.0359299 2.20995e-06 -5.42344e-08
0.0481857 2.1706e-06 -6.00431e-08
0.0585203 1.93674e-06 -6.34843e-08
0.06671 1.60739e-06 -6.27672e-08
0.0727594 1.24957e-06 -5.71784e-08
0.0768911 9.06555e-07 -4.72877e-08
0.0794816 6.02269e-07 -3.45297e-08
0.0809648 3.47337e-07 -2.07686e-08
0.081737 1.51308e-07 -6.22103e-09
0.082101 6.51324e-08 1.09935e-09
0.0822561 2.64296e-08 4.44709e-09
0.0823158 1.09222e-08 4.62744e-09
0.0823365 5.41371e-09 2.4551e-09
0.082343 3.80413e-09 7.0727e-10
0.0823447 9.74867e-09 -8.37376e-10
0.082345 5.00128e-08 -4.85614e-09
0.0823444 2.27363e-07 -2.39092e-08
0.0823621 8.5464e-07 -1.00009e-07
0.0823492 3.24311e-06 -5.33989e-07
0.0823231 4.20217e-06 -1.5027e-07
0.0823304 4.03161e-06 -2.09745e-07
0.0823349 3.26188e-06 -1.71711e-07
0.0823385 2.32462e-06 -1.17336e-07
0.082341 1.48923e-06 -7.3372e-08
0.0823425 8.61871e-07 -4.34204e-08
0.0823428 4.44464e-07 -2.39022e-08
0.0823406 1.87113e-07 -9.58748e-09
0.0823308 1.80565e-08 6.62671e-09
0.0822999 -1.37486e-07 4.301e-08
0.0822088 -2.87408e-07 7.29629e-08
0.0819573 -4.99884e-07 8.46915e-08
0.081314 -8.26194e-07 9.43944e-08
0.0797884 -1.30374e-06 1.12825e-07
0.0764536 -1.95098e-06 1.43878e-07
0.0697961 -2.71935e-06 1.83494e-07
0.0578514 -3.3971e-06 2.07642e-07
0.0390597 -3.4765e-06 1.46735e-07
0.0139121 -2.13523e-06 -5.28182e-08
0.00807272 8.97705e-07 -4.12201e-08
0.0239247 1.64804e-06 -4.9882e-08
0.0388272 1.91924e-06 -5.73384e-08
0.0521553 1.89553e-06 -6.37752e-08
0.0634618 1.70422e-06 -6.75238e-08
0.0724886 1.42787e-06 -6.6786e-08
0.0792136 1.12219e-06 -6.08483e-08
0.0838496 8.23693e-07 -5.03245e-08
0.0867846 5.536e-07 -3.67384e-08
0.0884813 3.2292e-07 -2.20751e-08
0.0893727 1.42935e-07 -7.61594e-09
0.0897966 6.2976e-08 -7.50164e-10
0.0899788 2.65972e-08 2.46708e-09
0.0900494 1.1241e-08 2.91548e-09
0.090074 5.0269e-09 1.44522e-09
0.0900817 5.28889e-09 1.38202e-10
0.0900838 2.85592e-08 -1.13225e-09
0.0900841 1.51446e-07 -5.05552e-09
0.0900835 6.46709e-07 -2.51011e-08
0.0901023 2.30437e-06 -1.10257e-07
0.0900898 8.43035e-06 -6.12652e-07
0.0900621 9.95148e-06 -1.88942e-07
0.0900683 8.97498e-06 -2.22121e-07
0.0900723 6.94381e-06 -1.71485e-07
0.0900761 4.79915e-06 -1.14297e-07
0.0900789 3.02086e-06 -7.00529e-08
0.0900809 1.74325e-06 -4.05707e-08
0.0900816 9.15168e-07 -2.16559e-08
0.0900797 4.13006e-07 -7.83715e-09
0.0900705 9.87532e-08 8.39079e-09
0.0900404 -1.4452e-07 4.64822e-08
0.0899504 -2.89859e-07 7.80616e-08
0.0896988 -4.73333e-07 8.86663e-08
0.0890462 -7.51896e-07 9.54031e-08
0.0874762 -1.15421e-06 1.0824e-07
0.0839906 -1.68835e-06 1.29468e-07
0.0769165 -2.30597e-06 1.54424e-07
0.0640107 -2.8265e-06 1.65383e-07
0.0433949 -2.8381e-06 1.27278e-07
0.0154973 -1.70497e-06 1.22367e-08
0.0084175 7.30517e-07 -4.21639e-08
0.0249577 1.33572e-06 -5.23836e-08
0.0405357 1.55703e-06 -6.078e-08
0.0545076 1.54337e-06 -6.76803e-08
0.0664069 1.3959e-06 -7.15337e-08
0.0759532 1.17891e-06 -7.06064e-08
0.0831054 9.3537e-07 -6.42263e-08
0.0880663 6.93653e-07 -5.30574e-08
0.0912272 4.70898e-07 -3.86917e-08
0.0930661 2.77144e-07 -2.32001e-08
0.0940382 1.23803e-07 -8.53067e-09
0.0945031 5.51307e-08 -1.97891e-09
0.094704 2.34025e-08 9.45713e-10
0.0947822 9.16004e-09 1.48657e-09
0.0948095 3.28652e-09 5.88483e-10
0.0948181 1.13053e-08 -2.55245e-10
0.0948204 8.25043e-08 -1.16682e-09
0.0948208 4.13441e-07 -4.80983e-09
0.09482 1.66802e-06 -2.55908e-08
0.0948415 5.68602e-06 -1.1868e-07
0.094829 2.02174e-05 -6.80132e-07
0.0947972 2.1644e-05 -2.62532e-07
0.0948015 1.84405e-05 -2.64816e-07
0.0948053 1.36403e-05 -1.8856e-07
0.0948096 9.10253e-06 -1.18057e-07
0.0948133 5.58392e-06 -6.84815e-08
0.0948161 3.17265e-06 -3.75685e-08
0.0948174 1.66105e-06 -1.88382e-08
0.0948161 7.66505e-07 -5.70752e-09
0.0948075 2.27857e-07 1.00126e-08
0.0947785 -1.40656e-07 4.90087e-08
0.0946901 -2.83132e-07 8.15968e-08
0.094441 -4.30716e-07 9.07244e-08
0.0937888 -6.50782e-07 9.45165e-08
0.0922041 -9.66309e-07 1.02479e-07
0.0886485 -1.37857e-06 1.16128e-07
0.0813508 -1.84566e-06 1.31481e-07
0.0678848 -2.22682e-06 1.37005e-07
0.0461489 -2.20906e-06 1.11935e-07
0.0165108 -1.31468e-06 4.01252e-08
0.00860515 5.67527e-07 -4.32023e-08
0.0255208 1.03023e-06 -5.49389e-08
0.0414696 1.19968e-06 -6.41665e-08
0.0557983 1.19155e-06 -7.13993e-08
0.0680298 1.08265e-06 -7.52403e-08
0.0778712 9.20543e-07 -7.40485e-08
0.0852693 7.36497e-07 -6.72098e-08
0.0904197 5.51169e-07 -5.54379e-08
0.0937139 3.77434e-07 -4.03771e-08
0.0956377 2.23648e-07 -2.41605e-08
0.0966584 1.00211e-07 -9.11275e-09
0.0971482 4.45061e-08 -2.57807e-09
0.0973605 1.80478e-08 1.64056e-10
0.0974433 5.0526e-09 7.08033e-10
0.0974724 1.26072e-09 1.59871e-10
0.0974815 3.03704e-08 -3.12158e-10
0.0974839 2.14924e-07 -7.71484e-10
0.0974842 1.00934e-06 -3.75406e-09
0.097483 3.89113e-06 -2.46178e-08
0.0975106 1.28035e-05 -1.25537e-07
0.0974968 4.459e-05 -7.55713e-07
0.0974552 4.33421e-05 -3.57769e-07
0.097457 3.4855e-05 -3.24849e-07
0.097461 2.45893e-05 -2.15664e-07
0.0974669 1.57845e-05 -1.25986e-07
0.0974725 9.38506e-06 -6.79078e-08
0.0974769 5.20908e-06 -3.43356e-08
0.0974794 2.68788e-06 -1.54938e-08
0.0974789 1.23949e-06 -3.09427e-09
0.0974711 3.98252e-07 1.19789e-08
0.097443 -1.18709e-07 5.15326e-08
0.097356 -2.66876e-07 8.51375e-08
0.0971093 -3.84234e-07 9.31605e-08
0.0964598 -5.48942e-07 9.47109e-08
0.0948721 -7.82721e-07 9.91247e-08
0.0912865 -1.0838e-06 1.07655e-07
0.0838766 -1.4191e-06 1.16908e-07
0.0701079 -1.68549e-06 1.19001e-07
0.0477411 -1.65604e-06 1.00551e-07
0.0170996 -9.81901e-07 4.74803e-08
0.00870002 4.25462e-07 -4.42663e-08
0.0258059 7.64818e-07 -5.7327e-08
0.0419433 8.88273e-07 -6.72337e-08
0.0564547 8.82918e-07 -7.46939e-08
0.068858 8.0505e-07 -7.84642e-08
0.0788531 6.88468e-07 -7.69973e-08
0.0863805 5.54913e-07 -6.97368e-08
0.0916315 4.18667e-07 -5.74394e-08
0.0949969 2.88861e-07 -4.17886e-08
0.0969665 1.71985e-07 -2.49634e-08
0.0980135 7.67861e-08 -9.49974e-09
0.0985169 3.33066e-08 -2.79887e-09
0.0987354 1.14282e-08 -1.09559e-10
0.0988208 -7.37354e-10 4.29171e-10
0.0988508 9.05237e-10 1.032e-10
0.0988602 7.57842e-08 -3.55568e-12
0.0988626 4.88082e-07 2.68327e-10
0.0988626 2.17581e-06 -1.28585e-09
0.0988605 8.10811e-06 -2.13903e-08
0.0989011 2.5968e-05 -1.32873e-07
0.0988819 8.93183e-05 -8.72046e-07
0.0988189 7.89539e-05 -4.92906e-07
0.0988186 5.99061e-05 -4.05149e-07
0.0988246 4.02371e-05 -2.49835e-07
0.0988343 2.47829e-05 -1.34885e-07
0.0988437 1.42293e-05 -6.64319e-08
0.098851 7.67434e-06 -3.00158e-08
0.0988556 3.87221e-06 -1.12969e-08
0.0988563 1.75968e-06 1.53613e-10
0.0988495 5.79239e-07 1.45624e-08
0.0988223 -4.02467e-08 5.42086e-08
0.0987362 -2.17332e-07 8.94462e-08
0.0984911 -3.29126e-07 9.67859e-08
0.0978439 -4.5619e-07 9.674e-08
0.0962566 -6.24602e-07 9.87694e-08
0.0926591 -8.34753e-07 1.04108e-07
0.0851963 -1.06396e-06 1.09813e-07
0.0712758 -1.24101e-06 1.09862e-07
0.048582 -1.20741e-06 9.43782e-08
0.0174116 -7.14735e-07 5.03112e-08
0.0087446 3.10219e-07 -4.5304e-08
0.0259399 5.51129e-07 -5.94372e-08
0.0421663 6.37643e-07 -6.98646e-08
0.0567645 6.33674e-07 -7.74707e-08
0.0692496 5.79352e-07 -8.11476e-08
0.0793186 4.97945e-07 -7.94294e-08
0.0869084 4.04019e-07 -7.18084e-08
0.0922082 3.07048e-07 -5.9075e-08
0.0956084 2.13216e-07 -4.29415e-08
0.0976003 1.27285e-07 -2.56206e-08
0.0986603 5.61188e-08 -9.77654e-09
0.0991703 2.2785e-08 -2.84196e-09
0.0993919 4.04758e-09 -1.18458e-10
0.0994785 -7.93575e-09 4.45433e-10
0.099509 3.97902e-09 3.23131e-10
0.0995185 1.57776e-07 7.36467e-10
0.0995208 9.44967e-07 2.34855e-09
0.0995202 4.06199e-06 3.59507e-09
0.0995164 1.4787e-05 -1.45506e-08
0.0995822 4.64497e-05 -1.42978e-07
0.0995483 0.000159204 -1.06715e-06
0.0994433 0.000128053 -6.91042e-07
0.0994445 9.17274e-05 -5.14472e-07
0.0994566 5.86316e-05 -2.91957e-07
0.0994742 3.46147e-05 -1.43608e-07
0.0994904 1.91515e-05 -6.32929e-08
0.0995025 1.00003e-05 -2.44295e-08
0.0995102 4.90447e-06 -6.40715e-09
0.0995127 2.17375e-06 3.91858e-09
0.0995073 7.21964e-07 1.79035e-08
0.0994809 2.38005e-07 5.79293e-08
0.0993953 -5.76876e-08 9.54877e-08
0.0991511 -2.34072e-07 1.02349e-07
0.0985053 -3.64802e-07 1.00765e-07
0.0969189 -4.95262e-07 1.01001e-07
0.0933169 -6.39291e-07 1.04336e-07
0.0858308 -7.88761e-07 1.08023e-07
0.0718394 -8.99351e-07 1.06928e-07
0.0489894 -8.64456e-07 9.27329e-08
0.0175631 -5.10716e-07 5.24855e-08
0.00876408 2.21274e-07 -4.62744e-08
0.0259985 3.8794e-07 -6.12328e-08
0.042264 4.46739e-07 -7.20404e-08
0.0569003 4.43575e-07 -7.9733e-08
0.0694215 4.06407e-07 -8.33138e-08
0.0795231 3.50848e-07 -8.13815e-08
0.0871408 2.86373e-07 -7.3466e-08
0.0924622 2.19058e-07 -6.03829e-08
0.095878 1.5293e-07 -4.38646e-08
0.0978799 9.13036e-08 -2.61484e-08
0.0989457 3.91978e-08 -9.98912e-09
0.0994587 1.35129e-08 -2.82111e-09
0.0996816 -3.72479e-09 -1.71652e-11
0.0997688 -1.64985e-08 6.20176e-10
0.0997995 8.33907e-09 7.81806e-10
0.099809 2.61586e-07 2.05965e-09
0.0998111 1.51248e-06 6.03148e-09
0.0998097 6.36678e-06 1.21416e-08
0.0998032 2.28603e-05 -3.02193e-09
0.0999124 7.0919e-05 -1.61077e-07
0.099847 0.000244613 -1.39374e-06
0.09967 0.000178589 -9.72036e-07
0.099682 0.000120917 -6.67096e-07
0.0997074 7.36134e-05 -3.50728e-07
0.0997385 4.16818e-05 -1.57771e-07
0.099765 2.2207e-05 -6.21077e-08
0.0997841 1.1196e-05 -2.00661e-08
0.099796 5.30535e-06 -2.4295e-09
0.0998009 2.2712e-06 7.39349e-09
0.0997972 7.88805e-07 2.23683e-08
0.0997717 1.11356e-06 6.15273e-08
0.0996861 3.51764e-07 1.05864e-07
0.0994424 -4.83676e-08 1.10798e-07
0.0987974 -2.56939e-07 1.06923e-07
0.0972115 -3.87094e-07 1.05302e-07
0.0936081 -4.91311e-07 1.07131e-07
0.0861122 -5.84967e-07 1.09566e-07
0.0720901 -6.48217e-07 1.07771e-07
0.0491711 -6.13055e-07 9.39654e-08
0.0176308 -3.60577e-07 5.48278e-08
0.00877199 1.55048e-07 -4.71462e-08
0.0260223 2.67981e-07 -6.27177e-08
0.0423037 3.06985e-07 -7.37928e-08
0.0569556 3.04413e-07 -8.15314e-08
0.0694916 2.79377e-07 -8.50234e-08
0.0796066 2.42135e-07 -8.29162e-08
0.0872356 1.98705e-07 -7.47674e-08
0.0925661 1.52874e-07 -6.141e-08
0.0959882 1.07176e-07 -4.45905e-08
0.0979942 6.37862e-08 -2.65635e-08
0.0990624 2.60941e-08 -1.01604e-08
0.0995766 5.82504e-09 -2.78709e-09
0.0998001 -1.1299e-08 1.20582e-10
0.0998875 -2.69215e-08 8.93869e-10
0.0999182 3.06605e-09 1.50152e-09
0.0999277 3.20723e-07 4.14703e-09
0.0999296 1.88765e-06 1.16972e-08
0.0999273 7.91858e-06 2.43964e-08
0.0999174 2.83032e-05 9.29349e-09
0.100091 8.71951e-05 -2.09897e-07
0.099971 0.000306399 -1.95964e-06
0.0996898 0.000200728 -1.37494e-06
0.0997289 0.000128605 -9.0983e-07
0.0997759 7.4725e-05 -4.64803e-07
0.0998259 4.0671e-05 -2.03139e-07
0.0998655 2.08643e-05 -7.83618e-08
0.099893 1.01158e-05 -2.55503e-08
0.0999097 4.58253e-06 -3.92866e-09
0.0999172 1.86666e-06 8.42298e-09
0.0999159 7.81893e-07 2.7552e-08
0.0998908 3.24421e-06 7.53471e-08
0.0998044 1.08531e-06 1.22106e-07
0.0995612 2.3474e-07 1.22832e-07
0.0989167 -1.32399e-07 1.15316e-07
0.0973313 -2.9424e-07 1.11336e-07
0.0937273 -3.79593e-07 1.11652e-07
0.0862277 -4.36468e-07 1.13074e-07
0.0721932 -4.67534e-07 1.10698e-07
0.0492459 -4.32985e-07 9.67603e-08
0.0176587 -2.52548e-07 5.7334e-08
0.00877499 1.07042e-07 -4.78998e-08
0.0260313 1.82262e-07 -6.39153e-08
0.0423187 2.0763e-07 -7.51738e-08
0.0569765 2.05567e-07 -8.29326e-08
0.0695182 1.88923e-07 -8.63477e-08
0.0796383 1.64318e-07 -8.41018e-08
0.0872716 1.35501e-07 -7.57721e-08
0.0926055 1.04776e-07 -6.22034e-08
0.09603 7.36846e-08 -4.51514e-08
0.0980376 4.3571e-08 -2.68817e-08
0.0991067 1.65207e-08 -1.03002e-08
0.0996214 1.57897e-10 -2.75376e-09
0.099845 -1.75473e-08 2.74559e-10
0.0999326 -3.96245e-08 1.26276e-09
0.0999633 -2.93677e-08 2.52167e-09
0.0999728 2.26453e-07 7.00919e-09
0.0999745 1.57593e-06 1.86608e-08
0.0999715 6.81021e-06 3.58357e-08
0.0999583 2.44621e-05 2.07854e-09
0.100206 7.48383e-05 -3.63821e-07
0.100015 0.000272565 -3.03359e-06
0.099616 0.000153191 -2.03452e-06
0.0996999 9.29326e-05 -1.38684e-06
0.0997725 5.17388e-05 -7.42302e-07
0.0998422 2.71536e-05 -3.4765e-07
0.0998945 1.33485e-05 -1.48993e-07
0.0999296 6.10665e-06 -5.94356e-08
0.0999506 2.52503e-06 -1.96693e-08
0.0999602 9.09308e-07 2.83807e-09
0.0999622 6.68116e-07 3.06095e-08
0.0999363 6.50011e-06 8.75537e-08
0.0998474 1.75719e-06 1.43618e-07
0.0996057 4.53112e-07 1.39063e-07
0.0989618 -4.67422e-08 1.26378e-07
0.0973767 -2.25575e-07 1.1908e-07
0.0937726 -2.9477e-07 1.17479e-07
0.0862716 -3.26031e-07 1.1777e-07
0.0722325 -3.36307e-07 1.14724e-07
0.0492745 -3.04008e-07 1.00314e-07
0.0176693 -1.75338e-07 5.98861e-08
0.00877605 7.29608e-08 -4.85282e-08
0.0260345 1.22331e-07 -6.48594e-08
0.0423241 1.38561e-07 -7.62408e-08
0.0569839 1.36949e-07 -8.40049e-08
0.0695275 1.26009e-07 -8.73563e-08
0.0796495 1.09948e-07 -8.50031e-08
0.0872844 9.10636e-08 -7.65355e-08
0.0926194 7.0731e-08 -6.28063e-08
0.0960448 4.98633e-08 -4.55767e-08
0.0980529 2.92581e-08 -2.71172e-08
0.0991223 1.01151e-08 -1.04103e-08
0.0996372 -2.89466e-09 -2.71528e-09
0.0998609 -2.05843e-08 4.55905e-10
0.0999485 -5.20707e-08 1.7515e-09
0.0999792 -9.44157e-08 3.84595e-09
0.0999887 -8.03736e-08 1.02444e-08
0.0999904 2.77353e-07 2.41712e-08
0.0999871 1.81632e-06 3.36523e-08
0.0999721 6.756e-06 -7.47382e-08
0.100273 1.8249e-05 -7.8876e-07
0.100021 7.07502e-05 -5.18534e-06
0.0995431 1.45858e-05 -3.2968e-06
0.099674 8.40844e-06 -2.40404e-06
0.0997629 4.38746e-06 -1.38872e-06
0.0998435 2.02234e-06 -7.08154e-07
0.0999023 5.16153e-07 -3.33429e-07
0.0999414 -2.41728e-07 -1.48694e-07
0.0999646 -5.17123e-07 -6.10635e-08
0.0999753 -4.59731e-07 -1.36817e-08
0.0999813 1.60133e-07 3.06615e-08
0.0999525 7.24029e-06 1.09933e-07
0.0998596 1.25108e-06 1.76754e-07
0.0996206 2.69699e-07 1.62213e-07
0.0989775 -9.25506e-08 1.40966e-07
0.0973927 -1.96925e-07 1.28671e-07
0.0937887 -2.29229e-07 1.244e-07
0.0862872 -2.3828e-07 1.23231e-07
0.0722464 -2.36412e-07 1.19317e-07
0.0492846 -2.09131e-07 1.0418e-07
0.0176731 -1.19622e-07 6.2382e-08
0.00877639 4.91901e-08 -4.90363e-08
0.0260356 8.1174e-08 -6.55883e-08
0.0423258 9.14105e-08 -7.70506e-08
0.0569864 9.01866e-08 -8.48121e-08
0.0695306 8.3067e-08 -8.81127e-08
0.0796532 7.26921e-08 -8.56779e-08
0.0872886 6.04479e-08 -7.7107e-08
0.092624 4.71465e-08 -6.32573e-08
0.0960496 3.33321e-08 -4.58927e-08
0.098058 1.95085e-08 -2.72824e-08
0.0991274 6.44916e-09 -1.04879e-08
0.0996424 -2.88155e-09 -2.65572e-09
0.0998662 -1.8066e-08 6.92391e-10
0.0999537 -5.58266e-08 2.39859e-09
0.0999844 -1.6107e-07 5.43632e-09
0.0999939 -4.80302e-07 1.31298e-08
0.0999956 -1.55205e-06 2.4022e-08
0.0999923 -5.36309e-06 -4.90527e-10
0.099978 -1.94086e-05 -2.91084e-07
0.100261 -6.55423e-05 -1.70915e-06
0.100011 -0.000289656 -9.21583e-06
0.0995693 -0.00016237 -5.6985e-06
0.0997064 -9.28967e-05 -4.35846e-06
0.099784 -4.96315e-05 -2.63574e-06
0.0998573 -2.59108e-05 -1.40199e-06
0.0999118 -1.33846e-05 -6.84328e-07
0.0999488 -6.93431e-06 -3.15345e-07
0.099971 -3.62952e-06 -1.35703e-07
0.0999812 -1.92148e-06 -4.33372e-08
0.0999896 -1.03714e-06 2.69041e-08
0.0999578 -1.32329e-06 1.35497e-07
0.0998618 -8.86028e-07 2.26934e-07
0.0996256 -4.1753e-07 1.92354e-07
0.0989826 -2.58029e-07 1.58316e-07