# vtk DataFile Version 2.0
Velocidad
ASCII

DATASET STRUCTURED_GRID
DIMENSIONS   40   40   30

POINTS   48000   double
0.0125   0.0125   0.0166667
0.0375   0.0125   0.0166667
0.0625   0.0125   0.0166667
0.0875   0.0125   0.0166667
0.1125   0.0125   0.0166667
0.1375   0.0125   0.0166667
0.1625   0.0125   0.0166667
0.1875   0.0125   0.0166667
0.2125   0.0125   0.0166667
0.2375   0.0125   0.0166667
0.2625   0.0125   0.0166667
0.2875   0.0125   0.0166667
0.3125   0.0125   0.0166667
0.3375   0.0125   0.0166667
0.3625   0.0125   0.0166667
0.3875   0.0125   0.0166667
0.4125   0.0125   0.0166667
0.4375   0.0125   0.0166667
0.4625   0.0125   0.0166667
0.4875   0.0125   0.0166667
0.5125   0.0125   0.0166667
0.5375   0.0125   0.0166667
0.5625   0.0125   0.0166667
0.5875   0.0125   0.0166667
0.6125   0.0125   0.0166667
0.6375   0.0125   0.0166667
0.6625   0.0125   0.0166667
0.6875   0.0125   0.0166667
0.7125   0.0125   0.0166667
0.7375   0.0125   0.0166667
0.7625   0.0125   0.0166667
0.7875   0.0125   0.0166667
0.8125   0.0125   0.0166667
0.8375   0.0125   0.0166667
0.8625   0.0125   0.0166667
0.8875   0.0125   0.0166667
0.9125   0.0125   0.0166667
0.9375   0.0125   0.0166667
0.9625   0.0125   0.0166667
0.9875   0.0125   0.0166667
0.0125   0.0375   0.0166667
0.0375   0.0375   0.0166667
0.0625   0.0375   0.0166667
0.0875   0.0375   0.0166667
0.1125   0.0375   0.0166667
0.1375   0.0375   0.0166667
0.1625   0.0375   0.0166667
0.1875   0.0375   0.0166667
0.2125   0.0375   0.0166667
0.2375   0.0375   0.0166667
0.2625   0.0375   0.0166667
0.2875   0.0375   0.0166667
0.3125   0.0375   0.0166667
0.3375   0.0375   0.0166667
0.3625   0.0375   0.0166667
0.3875   0.0375   0.0166667
0.4125   0.0375   0.0166667
0.4375   0.0375   0.0166667
0.4625   0.0375   0.0166667
0.4875   0.0375   0.0166667
0.5125   0.0375   0.0166667
0.5375   0.0375   0.0166667
0.5625   0.0375   0.0166667
0.5875   0.0375   0.0166667
0.6125   0.0375   0.0166667
0.6375   0.0375   0.0166667
0.6625   0.0375   0.0166667
0.6875   0.0375   0.0166667
0.7125   0.0375   0.0166667
0.7375   0.0375   0.0166667
0.7625   0.0375   0.0166667
0.7875   0.0375   0.0166667
0.8125   0.0375   0.0166667
0.8375   0.0375   0.0166667
0.8625   0.0375   0.0166667
0.8875   0.0375   0.0166667
0.9125   0.0375   0.0166667
0.9375   0.0375   0.0166667
0.9625   0.0375   0.0166667
0.9875   0.0375   0.0166667
0.0125   0.0625   0.0166667
0.0375   0.0625   0.0166667
0.0625   0.0625   0.0166667
0.0875   0.0625   0.0166667
0.1125   0.0625   0.0166667
0.1375   0.0625   0.0166667
0.1625   0.0625   0.0166667
0.1875   0.0625   0.0166667
0.2125   0.0625   0.0166667
0.2375   0.0625   0.0166667
0.2625   0.0625   0.0166667
0.2875   0.0625   0.0166667
0.3125   0.0625   0.0166667
0.3375   0.0625   0.0166667
0.3625   0.0625   0.0166667
0.3875   0.0625   0.0166667
0.4125   0.0625   0.0166667
0.4375   0.0625   0.0166667
0.4625   0.0625   0.0166667
0.4875   0.0625   0.0166667
0.5125   0.0625   0.0166667
0.5375   0.0625   0.0166667
0.5625   0.0625   0.0166667
0.5875   0.0625   0.0166667
0.6125   0.0625   0.0166667
0.6375   0.0625   0.0166667
0.6625   0.0625   0.0166667
0.6875   0.0625   0.0166667
0.7125   0.0625   0.0166667
0.7375   0.0625   0.0166667
0.7625   0.0625   0.0166667
0.7875   0.0625   0.0166667
0.8125   0.0625   0.0166667
0.8375   0.0625   0.0166667
0.8625   0.0625   0.0166667
0.8875   0.0625   0.0166667
0.9125   0.0625   0.0166667
0.9375   0.0625   0.0166667
0.9625   0.0625   0.0166667
0.9875   0.0625   0.0166667
0.0125   0.0875   0.0166667
0.0375   0.0875   0.0166667
0.0625   0.0875   0.0166667
0.0875   0.0875   0.0166667
0.1125   0.0875   0.0166667
0.1375   0.0875   0.0166667
0.1625   0.0875   0.0166667
0.1875   0.0875   0.0166667
0.2125   0.0875   0.0166667
0.2375   0.0875   0.0166667
0.2625   0.0875   0.0166667
0.2875   0.0875   0.0166667
0.3125   0.0875   0.0166667
0.3375   0.0875   0.0166667
0.3625   0.0875   0.0166667
0.3875   0.0875   0.0166667
0.4125   0.0875   0.0166667
0.4375   0.0875   0.0166667
0.4625   0.0875   0.0166667
0.4875   0.0875   0.0166667
0.5125   0.0875   0.0166667
0.5375   0.0875   0.0166667
0.5625   0.0875   0.0166667
0.5875   0.0875   0.0166667
0.6125   0.0875   0.0166667
0.6375   0.0875   0.0166667
0.6625   0.0875   0.0166667
0.6875   0.0875   0.0166667
0.7125   0.0875   0.0166667
0.7375   0.0875   0.0166667
0.7625   0.0875   0.0166667
0.7875   0.0875   0.0166667
0.8125   0.0875   0.0166667
0.8375   0.0875   0.0166667
0.8625   0.0875   0.0166667
0.8875   0.0875   0.0166667
0.9125   0.0875   0.0166667
0.9375   0.0875   0.0166667
0.9625   0.0875   0.0166667
0.9875   0.0875   0.0166667
0.0125   0.1125   0.0166667
0.0375   0.1125   0.0166667
0.0625   0.1125   0.0166667
0.0875   0.1125   0.0166667
0.1125   0.1125   0.0166667
0.1375   0.1125   0.0166667
0.1625   0.1125   0.0166667
0.1875   0.1125   0.0166667
0.2125   0.1125   0.0166667
0.2375   0.1125   0.0166667
0.2625   0.1125   0.0166667
0.2875   0.1125   0.0166667
0.3125   0.1125   0.0166667
0.3375   0.1125   0.0166667
0.3625   0.1125   0.0166667
0.3875   0.1125   0.0166667
0.4125   0.1125   0.0166667
0.4375   0.1125   0.0166667
0.4625   0.1125   0.0166667
0.4875   0.1125   0.0166667
0.5125   0.1125   0.0166667
0.5375   0.1125   0.0166667
0.5625   0.1125   0.0166667
0.5875   0.1125   0.0166667
0.6125   0.1125   0.0166667
0.6375   0.1125   0.0166667
0.6625   0.1125   0.0166667
0.6875   0.1125   0.0166667
0.7125   0.1125   0.0166667
0.7375   0.1125   0.0166667
0.7625   0.1125   0.0166667
0.7875   0.1125   0.0166667
0.8125   0.1125   0.0166667
0.8375   0.1125   0.0166667
0.8625   0.1125   0.0166667
0.8875   0.1125   0.0166667
0.9125   0.1125   0.0166667
0.9375   0.1125   0.0166667
0.9625   0.1125   0.0166667
0.9875   0.1125   0.0166667
0.0125   0.1375   0.0166667
0.0375   0.1375   0.0166667
0.0625   0.1375   0.0166667
0.0875   0.1375   0.0166667
0.1125   0.1375   0.0166667
0.1375   0.1375   0.0166667
0.1625   0.1375   0.0166667
0.1875   0.1375   0.0166667
0.2125   0.1375   0.0166667
0.2375   0.1375   0.0166667
0.2625   0.1375   0.0166667
0.2875   0.1375   0.0166667
0.3125   0.1375   0.0166667
0.3375   0.1375   0.0166667
0.3625   0.1375   0.0166667
0.3875   0.1375   0.0166667
0.4125   0.1375   0.0166667
0.4375   0.1375   0.0166667
0.4625   0.1375   0.0166667
0.4875   0.1375   0.0166667
0.5125   0.1375   0.0166667
0.5375   0.1375   0.0166667
0.5625   0.1375   0.0166667
0.5875   0.1375   0.0166667
0.6125   0.1375   0.0166667
0.6375   0.1375   0.0166667
0.6625   0.1375   0.0166667
0.6875   0.1375   0.0166667
0.7125   0.1375   0.0166667
0.7375   0.1375   0.0166667
0.7625   0.1375   0.0166667
0.7875   0.1375   0.0166667
0.8125   0.1375   0.0166667
0.8375   0.1375   0.0166667
0.8625   0.1375   0.0166667
0.8875   0.1375   0.0166667
0.9125   0.1375   0.0166667
0.9375   0.1375   0.0166667
0.9625   0.1375   0.0166667
0.9875   0.1375   0.0166667
0.0125   0.1625   0.0166667
0.0375   0.1625   0.0166667
0.0625   0.1625   0.0166667
0.0875   0.1625   0.0166667
0.1125   0.1625   0.0166667
0.1375   0.1625   0.0166667
0.1625   0.1625   0.0166667
0.1875   0.1625   0.0166667
0.2125   0.1625   0.0166667
0.2375   0.1625   0.0166667
0.2625   0.1625   0.0166667
0.2875   0.1625   0.0166667
0.3125   0.1625   0.0166667
0.3375   0.1625   0.0166667
0.3625   0.1625   0.0166667
0.3875   0.1625   0.0166667
0.4125   0.1625   0.0166667
0.4375   0.1625   0.0166667
0.4625   0.1625   0.0166667
0.4875   0.1625   0.0166667
0.5125   0.1625   0.0166667
0.5375   0.1625   0.0166667
0.5625   0.1625   0.0166667
0.5875   0.1625   0.0166667
0.6125   0.1625   0.0166667
0.6375   0.1625   0.0166667
0.6625   0.1625   0.0166667
0.6875   0.1625   0.0166667
0.7125   0.1625   0.0166667
0.7375   0.1625   0.0166667
0.7625   0.1625   0.0166667
0.7875   0.1625   0.0166667
0.8125   0.1625   0.0166667
0.8375   0.1625   0.0166667
0.8625   0.1625   0.0166667
0.8875   0.1625   0.0166667
0.9125   0.1625   0.0166667
0.9375   0.1625   0.0166667
0.9625   0.1625   0.0166667
0.9875   0.1625   0.0166667
0.0125   0.1875   0.0166667
0.0375   0.1875   0.0166667
0.0625   0.1875   0.0166667
0.0875   0.1875   0.0166667
0.1125   0.1875   0.0166667
0.1375   0.1875   0.0166667
0.1625   0.1875   0.0166667
0.1875   0.1875   0.0166667
0.2125   0.1875   0.0166667
0.2375   0.1875   0.0166667
0.2625   0.1875   0.0166667
0.2875   0.1875   0.0166667
0.3125   0.1875   0.0166667
0.3375   0.1875   0.0166667
0.3625   0.1875   0.0166667
0.3875   0.1875   0.0166667
0.4125   0.1875   0.0166667
0.4375   0.1875   0.0166667
0.4625   0.1875   0.0166667
0.4875   0.1875   0.0166667
0.5125   0.1875   0.0166667
0.5375   0.1875   0.0166667
0.5625   0.1875   0.0166667
0.5875   0.1875   0.0166667
0.6125   0.1875   0.0166667
0.6375   0.1875   0.0166667
0.6625   0.1875   0.0166667
0.6875   0.1875   0.0166667
0.7125   0.1875   0.0166667
0.7375   0.1875   0.0166667
0.7625   0.1875   0.0166667
0.7875   0.1875   0.0166667
0.8125   0.1875   0.0166667
0.8375   0.1875   0.0166667
0.8625   0.1875   0.0166667
0.8875   0.1875   0.0166667
0.9125   0.1875   0.0166667
0.9375   0.1875   0.0166667
0.9625   0.1875   0.0166667
0.9875   0.1875   0.0166667
0.0125   0.2125   0.0166667
0.0375   0.2125   0.0166667
0.0625   0.2125   0.0166667
0.0875   0.2125   0.0166667
0.1125   0.2125   0.0166667
0.1375   0.2125   0.0166667
0.1625   0.2125   0.0166667
0.1875   0.2125   0.0166667
0.2125   0.2125   0.0166667
0.2375   0.2125   0.0166667
0.2625   0.2125   0.0166667
0.2875   0.2125   0.0166667
0.3125   0.2125   0.0166667
0.3375   0.2125   0.0166667
0.3625   0.2125   0.0166667
0.3875   0.2125   0.0166667
0.4125   0.2125   0.0166667
0.4375   0.2125   0.0166667
0.4625   0.2125   0.0166667
0.4875   0.2125   0.0166667
0.5125   0.2125   0.0166667
0.5375   0.2125   0.0166667
0.5625   0.2125   0.0166667
0.5875   0.2125   0.0166667
0.6125   0.2125   0.0166667
0.6375   0.2125   0.0166667
0.6625   0.2125   0.0166667
0.6875   0.2125   0.0166667
0.7125   0.2125   0.0166667
0.7375   0.2125   0.0166667
0.7625   0.2125   0.0166667
0.7875   0.2125   0.0166667
[...]
POINT_DATA   48000
VECTORS Velocidad double

0.00243614 2.19719e-07 -1.91297e-08
0.007009 3.1832e-07 -2.18443e-08
0.0107609 2.87025e-07 -2.33091e-08
0.0134209 2.04206e-07 -2.28945e-08
0.0150361 1.19116e-07 -2.07233e-08
0.0158663 5.50741e-08 -1.73796e-08
0.0162237 1.68886e-08 -1.36196e-08
0.0163515 -7.3217e-10 -9.94347e-09
0.0163892 -5.54816e-09 -6.57784e-09
0.0163983 -3.62884e-09 -3.69488e-09
0.0164001 1.32086e-09 0
0.0164003 3.35097e-09 0
0.0164004 3.98345e-09 0
0.0164004 3.50822e-09 0
0.0164004 2.50275e-09 0
0.0164004 1.58202e-09 0
0.0164004 9.2493e-10 0
0.0164004 5.14859e-10 0
0.0164004 2.74825e-10 0
0.0164005 1.48374e-10 0
0.0164004 1.39854e-10 0
0.0164002 2.88933e-09 0
0.0164003 -9.53452e-10 0
0.0164004 -9.05661e-10 0
0.0164004 -5.53154e-10 0
0.0164004 -2.68468e-10 0
0.0164004 -1.20369e-10 0
0.0164004 -4.30444e-11 0
0.0164004 6.383e-11 0
0.0164003 4.48675e-10 0
0.0163999 3.23344e-09 0
0.0163982 6.49496e-09 0
0.0163903 6.58173e-09 0
0.016358 -1.05931e-09 0
0.0162426 -3.01944e-08 0
0.0158859 -1.05245e-07 0
0.0149406 -2.616e-07 0
0.0128304 -5.384e-07 0
0.00895217 -9.23255e-07 0
0.0032531 -1.35343e-06 0
0.00674237 6.08428e-07 -2.05589e-08
0.0194596 8.85487e-07 -2.61851e-08
0.0300194 8.25421e-07 -2.93478e-08
0.0376334 6.23974e-07 -3.00139e-08
0.0423557 4.04927e-07 -2.76192e-08
0.0448386 2.29131e-07 -2.31131e-08
0.0459321 1.13386e-07 -1.79344e-08
0.0463314 4.87809e-08 -1.29687e-08
0.0464512 1.82169e-08 -8.55721e-09
0.0464803 6.96757e-09 -4.93332e-09
0.046486 5.69641e-09 0
0.0464868 9.18163e-09 0
0.0464868 1.07153e-08 0
0.0464868 9.44717e-09 0
0.0464869 6.63946e-09 0
0.0464869 4.086e-09 0
0.0464868 2.30425e-09 0
0.0464868 1.23086e-09 0
0.0464868 6.28986e-10 0
0.046487 3.21467e-10 0
0.0464869 2.85231e-10 0
0.0464867 3.33893e-09 0
0.0464868 2.41258e-10 0
0.0464868 -4.2669e-10 0
0.0464868 -6.72951e-10 0
0.0464868 -5.96315e-10 0
0.0464868 -4.55189e-10 0
0.0464868 -3.03994e-10 0
0.0464868 -8.64178e-11 0
0.0464867 4.46568e-10 0
0.0464859 3.83698e-09 0
0.0464819 4.92201e-10 0
0.0464629 -1.13886e-08 0
0.0463833 -4.70179e-08 0
0.046092 -1.37898e-07 0
0.0451666 -3.37794e-07 0
0.0426456 -7.18948e-07 0
0.0368502 -1.33506e-06 0
0.0258971 -2.07322e-06 0
0.00945803 -2.42911e-06 0
0.00986063 7.85236e-07 -2.16027e-08
0.0285491 1.15822e-06 -2.74873e-08
0.0442581 1.11213e-06 -3.15886e-08
0.0557856 8.80877e-07 -3.28372e-08
0.063096 6.12462e-07 -3.03856e-08
0.0670353 3.83165e-07 -2.53875e-08
0.0688139 2.19665e-07 -1.96232e-08
0.0694789 1.17271e-07 -1.41516e-08
0.0696824 5.86594e-08 -9.30729e-09
0.0697327 2.67272e-08 -5.23513e-09
0.0697425 1.01659e-08 -1.53516e-09
0.0697438 1.16872e-08 -2.46172e-09
0.0697439 1.32327e-08 -2.78699e-09
0.069744 1.17661e-08 -2.39762e-09
0.069744 8.29101e-09 -1.67557e-09
0.069744 5.07099e-09 -1.03022e-09
0.0697439 2.8205e-09 -5.86508e-10
0.0697439 1.47532e-09 -3.17403e-10
0.0697439 7.29348e-10 -1.618e-10
0.0697441 3.22168e-10 -7.16168e-11
0.069744 1.0938e-10 -1.42196e-11
0.0697438 -7.62826e-10 -1.47988e-10
0.0697439 -1.85305e-10 -1.90797e-10
0.0697439 -1.44262e-09 -1.51002e-10
0.0697439 -2.31189e-09 -9.03962e-11
0.0697439 -2.34848e-09 -4.51164e-11
0.0697439 -1.95224e-09 -1.99189e-11
0.0697439 -1.42622e-09 -7.54702e-12
0.0697439 -9.22251e-10 8.61166e-12
0.0697438 -5.73534e-10 7.56047e-11
0.0697428 -3.24233e-10 9.19452e-10
0.0697379 -1.53345e-08 1.71473e-09
0.0697142 -4.26952e-08 3.35503e-09
0.0696122 -1.03628e-07 6.90351e-09
0.0692284 -2.32664e-07 1.45032e-08
0.0679734 -4.84585e-07 3.12118e-08
0.0644455 -9.23377e-07 6.89759e-08
0.0560651 -1.55964e-06 1.58558e-07
0.0397195 -2.16371e-06 3.40999e-07
0.01459 -1.90982e-06 7.35763e-07
0.0117769 7.28927e-07 -2.31572e-08
0.0341766 1.08834e-06 -2.96942e-08
0.0531778 1.06301e-06 -3.41427e-08
0.0673075 8.62561e-07 -3.53982e-08
0.0764206 6.19032e-07 -3.26187e-08
0.0814244 4.02755e-07 -2.71108e-08
0.083727 2.41749e-07 -2.08624e-08
0.0846036 1.35723e-07 -1.50047e-08
0.0848763 7.12366e-08 -9.82764e-09
0.0849445 3.32595e-08 -5.36215e-09
0.0849578 1.14463e-08 -2.56463e-09
0.0849596 1.06356e-08 -3.60131e-09
0.0849598 1.15839e-08 -4.83221e-09
0.0849598 1.04514e-08 -4.79614e-09
0.0849598 7.54559e-09 -3.60321e-09
0.0849598 4.73885e-09 -2.31086e-09
0.0849598 2.70677e-09 -1.35542e-09
0.0849598 1.44717e-09 -7.50669e-10
0.0849598 7.02572e-10 -3.91363e-10
0.0849599 1.36561e-10 -1.82007e-10
0.0849598 -8.28585e-10 -7.48466e-11
0.0849596 -6.64121e-09 1.69918e-09
0.0849597 -9.56541e-09 -5.87664e-10
0.0849598 -1.13695e-08 -6.16443e-10
0.0849598 -1.13461e-08 -2.73906e-10
0.0849598 -9.7642e-09 -1.1439e-10
0.0849598 -7.50971e-09 -4.33876e-11
0.0849598 -5.26829e-09 -1.26993e-11
0.0849597 -3.3945e-09 1.61258e-11
0.0849596 -2.16023e-09 1.64099e-10
0.0849586 -2.41988e-09 1.45208e-09
0.0849536 -1.89232e-08 4.64933e-09
0.0849287 -4.89871e-08 6.92667e-09
0.0848195 -1.11954e-07 1.1073e-08
0.0843994 -2.37689e-07 1.76278e-08
0.0829925 -4.69917e-07 2.7495e-08
0.0789359 -8.52564e-07 4.15352e-08
0.0690374 -1.37054e-06 5.11179e-08
0.0492274 -1.78809e-06 2.70647e-08
0.0181673 -1.43701e-06 -3.01868e-07
0.012794 5.79805e-07 -2.52332e-08
0.0371804 8.65031e-07 -3.26478e-08
0.0579816 8.53816e-07 -3.71575e-08
0.0735756 7.05326e-07 -3.81306e-08
0.083737 5.18878e-07 -3.48709e-08
0.0893805 3.4812e-07 -2.88282e-08
0.0920078 2.16408e-07 -2.21076e-08
0.093019 1.26033e-07 -1.58717e-08
0.0933366 6.83936e-08 -1.03646e-08
0.0934166 3.25009e-08 -5.52924e-09
0.0934323 1.0433e-08 -2.73397e-09
0.0934345 8.26514e-09 -3.8684e-09
0.0934346 8.62951e-09 -5.18838e-09
0.0934346 7.88968e-09 -5.28778e-09
0.0934346 5.85357e-09 -4.11377e-09
0.0934346 3.80772e-09 -2.71201e-09
0.0934346 2.25487e-09 -1.61484e-09
0.0934346 1.22462e-09 -8.98363e-10
0.0934346 4.59383e-10 -4.69011e-10
0.0934347 -7.91055e-10 -2.19581e-10
0.0934346 -4.81695e-09 -5.74742e-11
0.0934345 -2.52771e-08 3.40049e-09
0.0934346 -3.7548e-08 4.86437e-10
0.0934346 -4.19549e-08 -1.76092e-10
0.0934346 -3.93437e-08 -1.39471e-10
0.0934346 -3.24303e-08 -6.84029e-11
0.0934346 -2.41656e-08 -2.61294e-11
0.0934346 -1.65249e-08 -5.82272e-12
0.0934346 -1.03276e-08 2.04473e-11
0.0934344 -5.68986e-09 1.72183e-10
0.0934335 -3.26608e-09 1.47477e-09
0.0934285 -1.79531e-08 4.6939e-09
0.0934036 -4.46345e-08 7.23511e-09
0.0932932 -9.84243e-08 1.11342e-08
0.0928623 -2.01348e-07 1.60993e-08
0.0913971 -3.83338e-07 2.09307e-08
0.0871018 -6.70373e-07 2.22525e-08
0.0764364 -1.04042e-06 1.23172e-08
0.054731 -1.31234e-06 -2.98347e-08
0.0202598 -1.01426e-06 -9.55741e-08
0.0132643 4.17684e-07 -2.7333e-08
0.0385747 6.17359e-07 -3.55895e-08
0.060225 6.12887e-07 -4.00624e-08
0.0765224 5.13614e-07 -4.06938e-08
0.0871976 3.86136e-07 -3.69736e-08
0.0931607 2.66354e-07 -3.04561e-08
0.095953 1.70943e-07 -2.33155e-08
0.0970335 1.0291e-07 -1.67271e-08
0.0973744 5.75421e-08 -1.09069e-08
0.0974606 2.78088e-08 -5.7423e-09
0.0974776 8.45643e-09 -2.318e-09
0.0974799 5.85698e-09 -2.99254e-09
0.0974801 5.8466e-09 -4.07714e-09
0.0974801 5.40287e-09 -4.2784e-09
0.0974801 4.11413e-09 -3.42174e-09
0.0974801 2.76797e-09 -2.31486e-09
0.0974801 1.67659e-09 -1.40744e-09
0.0974801 7.88622e-10 -7.95691e-10
0.0974801 -5.2129e-10 -4.19176e-10
0.0974802 -4.86044e-09 -1.87907e-10
0.0974801 -2.02956e-08 3.77603e-11
0.0974799 -8.25237e-08 4.09246e-09
0.09748 -1.18713e-07 1.01535e-09
0.0974801 -1.28245e-07 1.40259e-10
0.0974801 -1.16402e-07 8.34095e-13
0.0974801 -9.32704e-08 -2.82839e-12
0.0974801 -6.78171e-08 7.29054e-12
0.0974801 -4.53739e-08 1.28e-11
0.09748 -2.76794e-08 2.99508e-11
0.0974799 -1.41497e-08 1.73776e-10
0.097479 -4.24136e-09 1.44798e-09
0.097474 -1.51148e-08 5.03191e-09
0.0974494 -3.59582e-08 7.67985e-09
0.0973392 -7.68712e-08 1.16875e-08
0.096906 -1.52332e-07 1.65439e-08
0.0954215 -2.80791e-07 2.06946e-08
0.091031 -4.75989e-07 2.10061e-08
0.0800271 -7.18729e-07 1.22035e-08
0.0574299 -8.87456e-07 -8.82455e-09
0.0212936 -6.77709e-07 -3.33653e-08
0.0134548 2.81305e-07 -2.91947e-08
0.0391405 4.09336e-07 -3.81333e-08
0.0611384 4.07455e-07 -4.2559e-08
0.0777269 3.4565e-07 -4.28949e-08
0.0886169 2.65112e-07 -3.88005e-08
0.0947149 1.87712e-07 -3.1901e-08
0.0975771 1.2415e-07 -2.44099e-08
0.0986872 7.71036e-08 -1.7513e-08
0.0990381 4.43356e-08 -1.14131e-08
0.0991269 2.17811e-08 -5.96867e-09
0.0991444 6.3301e-09 -1.87245e-09
0.0991468 3.90397e-09 -2.0329e-09
0.099147 3.71563e-09 -2.76836e-09
0.0991469 3.46061e-09 -2.98265e-09
0.0991469 2.6931e-09 -2.44368e-09
0.0991469 1.84409e-09 -1.69541e-09
0.0991469 9.95167e-10 -1.05632e-09
0.0991469 -3.61606e-10 -6.10737e-10
0.0991469 -4.65718e-09 -3.26313e-10
0.0991471 -2.09765e-08 -1.25892e-10
0.0991469 -7.26001e-08 2.71076e-10
0.0991467 -2.36024e-07 4.66368e-09
0.0991469 -3.28228e-07 1.56682e-09
0.099147 -3.44211e-07 5.57004e-10
0.099147 -3.03619e-07 2.55992e-10
0.099147 -2.36944e-07 1.4932e-10
0.099147 -1.68248e-07 9.959e-11
0.099147 -1.10205e-07 7.05213e-11
0.099147 -6.58605e-08 6.59345e-11
0.0991468 -3.25244e-08 1.95374e-10
0.0991459 -7.01948e-09 1.48602e-09
0.0991409 -1.24146e-08 5.43314e-09
0.0991164 -2.70727e-08 8.30907e-09
0.0990065 -5.5709e-08 1.27323e-08
0.0985732 -1.06851e-07 1.82928e-08
0.097083 -1.91044e-07 2.37118e-08
0.0926585 -3.14947e-07 2.65202e-08
0.081523 -4.64756e-07 2.34882e-08
0.0585624 -5.65638e-07 1.3516e-08
0.0217296 -4.31887e-07 3.85857e-09
0.0135225 1.80691e-07 -3.07308e-08
0.039342 2.57756e-07 -4.01842e-08
0.0614643 2.56744e-07 -4.45736e-08
0.0781574 2.20162e-07 -4.46849e-08
0.0891248 1.72039e-07 -4.03073e-08
0.0952715 1.24828e-07 -3.31127e-08
0.098159 8.49073e-08 -2.53409e-08
0.0992797 5.42734e-08 -1.81872e-08
0.0996342 3.20223e-08 -1.18518e-08
0.0997239 1.59761e-08 -6.17912e-09
0.0997416 4.46151e-09 -1.56012e-09
0.099744 2.48576e-09 -1.30366e-09
0.0997442 2.25104e-09 -1.72082e-09
0.0997442 2.10422e-09 -1.89593e-09
0.0997442 1.64628e-09 -1.58692e-09
0.0997442 1.0058e-09 -1.12839e-09
0.0997442 -2.86011e-10 -7.21757e-10
0.0997442 -4.69211e-09 -4.2821e-10
0.0997442 -2.13124e-08 -2.27012e-10
0.0997443 -7.82482e-08 -1.0804e-12
0.099744 -2.22856e-07 1.15384e-09
0.0997438 -5.93939e-07 6.27779e-09
0.0997441 -8.04533e-07 3.02589e-09
0.0997443 -8.22338e-07 1.62757e-09
0.0997444 -7.05844e-07 9.45926e-10
0.0997444 -5.36408e-07 5.72883e-10
0.0997444 -3.71715e-07 3.59817e-10
0.0997443 -2.38254e-07 2.33979e-10
0.0997443 -1.39637e-07 1.68448e-10
0.0997441 -6.77518e-08 2.5658e-10
0.0997431 -1.39561e-08 1.55298e-09
0.0997382 -1.20806e-08 5.86438e-09
0.0997137 -2.09977e-08 9.00315e-09
0.099604 -3.95603e-08 1.39161e-08
0.0991708 -7.18437e-08 2.03296e-08
0.0976791 -1.23718e-07 2.72292e-08
0.0932436 -1.98265e-07 3.26365e-08
0.082063 -2.86631e-07 3.38563e-08
0.0589731 -3.4528e-07 2.95123e-08
0.0218882 -2.6547e-07 2.10246e-08
0.0135438 1.12145e-07 -3.19378e-08
0.0394053 1.56398e-07 -4.17642e-08
0.0615667 1.55697e-07 -4.61301e-08
0.0782927 1.3481e-07 -4.6079e-08
0.0892845 1.07168e-07 -4.14934e-08
0.0954463 7.9527e-08 -3.4077e-08
0.0983417 5.54957e-08 -2.60881e-08
0.0994657 3.64123e-08 -1.87314e-08
0.0998213 2.19897e-08 -1.22084e-08
0.0999114 1.11252e-08 -6.35711e-09
0.0999291 2.99374e-09 -1.3853e-09
0.0999316 1.52465e-09 -8.34647e-10
0.0999317 1.31014e-09 -1.01092e-09
0.0999317 1.2096e-09 -1.13055e-09
0.0999317 8.35818e-10 -9.64408e-10
0.0999317 -2.2912e-10 -7.02252e-10
0.0999317 -4.45744e-09 -4.61596e-10
0.0999317 -2.14964e-08 -2.80473e-10
0.0999317 -8.19158e-08 -1.19471e-10
0.0999318 -2.57489e-07 3.78396e-10
0.0999313 -5.61411e-07 4.45536e-09
0.0999311 -1.30179e-06 1.17053e-08
0.0999316 -1.75312e-06 7.61669e-09
0.099932 -1.75798e-06 4.78298e-09
0.0999322 -1.47095e-06 2.87818e-09
0.0999322 -1.08785e-06 1.70239e-09
0.0999321 -7.34745e-07 1.02537e-09
0.099932 -4.60312e-07 6.40299e-10
0.0999319 -2.64686e-07 4.17789e-10
0.0999317 -1.26924e-07 3.9217e-10
0.0999306 -2.89729e-08 1.6185e-09
0.0999257 -1.76727e-08 6.26521e-09
0.0999013 -2.1735e-08 9.64889e-09
0.0997916 -3.18777e-08 1.50016e-08
0.0993584 -4.98336e-08 2.21455e-08
0.0978664 -7.90733e-08 3.02146e-08
0.0934278 -1.21298e-07 3.7437e-08
0.0822333 -1.71236e-07 4.1214e-08
0.0591032 -2.04478e-07 3.93393e-08
0.0219386 -1.59032e-07 3.00193e-08
0.0135497 6.78011e-08 -3.28478e-08
0.0394229 9.22871e-08 -4.29329e-08
0.0615952 9.17503e-08 -4.72845e-08
0.0783303 8.01331e-08 -4.71193e-08
0.0893288 6.47052e-08 -4.23848e-08
0.0954948 4.90009e-08 -3.48068e-08
0.0983924 3.49879e-08 -2.66568e-08
0.0995173 2.34992e-08 -1.91475e-08
0.0998732 1.44892e-08 -1.24827e-08
0.0999633 7.42227e-09 -6.4973e-09
0.0999811 1.92637e-09 -1.30593e-09
0.0999835 9.04109e-10 -5.6253e-10
0.0999837 7.26404e-10 -5.74868e-10
0.0999837 5.85103e-10 -6.4357e-10
0.0999837 -1.52021e-10 -5.57838e-10
0.0999837 -3.64879e-09 -4.15859e-10
0.0999837 -1.93394e-08 -2.81607e-10
0.0999837 -8.04046e-08 -1.71596e-10
0.0999837 -2.73426e-07 6.54608e-11
0.0999837 -7.34123e-07 1.63528e-09
0.099983 -9.54673e-07 1.48526e-08
0.0999826 -2.40966e-06 2.74857e-08
0.0999836 -3.38774e-06 2.03304e-08
0.0999844 -3.36867e-06 1.30255e-08
0.0999848 -2.75208e-06 7.62583e-09
0.0999848 -1.97912e-06 4.31684e-09
0.0999846 -1.3007e-06 2.49502e-09
0.0999844 -7.95574e-07 1.51255e-09
0.0999841 -4.48629e-07 9.44159e-10
0.0999838 -2.14681e-07 6.60353e-10
0.0999826 -5.82565e-08 1.65827e-09
0.0999777 -3.81409e-08 6.59551e-09
0.0999532 -3.64714e-08 1.01831e-08
0.0998435 -3.80422e-08 1.58872e-08
0.0994104 -4.25688e-08 2.35874e-08
0.0979183 -5.45593e-08 3.24786e-08
0.0934789 -7.51183e-08 4.08466e-08
0.0822807 -1.01161e-07 4.60375e-08
0.0591394 -1.19036e-07 4.52727e-08
0.0219526 -9.38142e-08 3.49693e-08
0.0135511 4.01212e-08 -3.35053e-08
0.0394273 5.3248e-08 -4.37653e-08
0.0616023 5.2842e-08 -4.81064e-08
0.0783396 4.65102e-08 -4.78629e-08
0.0893397 3.80869e-08 -4.30252e-08
0.0955068 2.93712e-08 -3.53338e-08
0.0984049 2.14048e-08 -2.70695e-08
0.09953 1.46781e-08 -1.9451e-08
0.099886 9.21909e-09 -1.26838e-08
0.0999761 4.77465e-09 -6.60172e-09
0.0999939 1.19436e-09 -1.28028e-09
0.0999963 5.1518e-10 -4.15806e-10
0.0999965 3.45028e-10 -3.24075e-10
0.0999965 -5.65696e-11 -3.53823e-10
0.0999965 -2.4085e-09 -3.10586e-10
0.0999965 -1.43326e-08 -2.38099e-10
0.0999965 -6.6609e-08 -1.70845e-10
0.0999965 -2.54695e-07 -8.58229e-11
0.0999966 -7.77347e-07 5.65828e-10
0.099997 -1.73278e-06 5.47409e-09
0.0999957 1.76179e-07 4.2822e-08
0.0999945 -3.53183e-06 6.75871e-08
0.0999963 -5.7931e-06 5.14319e-08
0.0999981 -5.78494e-06 3.20381e-08
0.0999989 -4.61247e-06 1.78126e-08
0.0999988 -3.21664e-06 9.53784e-09
0.0999983 -2.05308e-06 5.27712e-09
0.0999978 -1.22462e-06 3.12763e-09
0.0999974 -6.79205e-07 1.91313e-09
0.0999968 -3.28637e-07 1.13807e-09
0.0999955 -1.07353e-07 1.65085e-09
0.0999905 -8.98923e-08 6.87232e-09
0.0999661 -8.09694e-08 1.06023e-08
0.0998564 -6.58136e-08 1.65541e-08
0.0994233 -5.3107e-08 2.46503e-08
0.0979311 -4.76566e-08 3.41012e-08
0.0934915 -5.14831e-08 4.31861e-08
0.0822924 -6.15692e-08 4.91758e-08
0.0591484 -6.95334e-08 4.89387e-08
0.0219561 -5.52549e-08 3.79305e-08
0.0135515 2.32991e-08 -3.3963e-08
0.0394282 3.0134e-08 -4.43349e-08
0.0616038 2.98416e-08 -4.86688e-08
0.0783416 2.64487e-08 -4.83732e-08
0.0893422 2.19334e-08 -4.34665e-08
0.0955095 1.71902e-08 -3.56987e-08
0.0984077 1.27577e-08 -2.73567e-08
0.0995328 8.91181e-09 -1.96633e-08
0.0998888 5.6904e-09 -1.28254e-08
0.099979 2.97557e-09 -6.67601e-09
0.0999967 7.14778e-10 -1.27992e-09
0.0999992 2.67704e-10 -3.412e-10
0.0999993 1.37374e-11 -1.86586e-10
0.0999993 -1.19638e-09 -1.89805e-10
0.0999993 -8.18174e-09 -1.68549e-10
0.0999993 -4.29245e-08 -1.39386e-10
0.0999994 -1.86794e-07 -1.22461e-10
0.0999995 -6.63608e-07 1.79801e-11
0.0999996 -1.80755e-06 2.01239e-09
0.100003 -3.16322e-06 1.60609e-08
0.0999992 8.62237e-06 1.08953e-07
0.0999943 -3.659e-06 1.59172e-07
0.0999984 -8.80314e-06 1.20611e-07
0.100002 -8.88441e-06 7.2156e-08
0.100004 -6.86887e-06 3.77135e-08
0.100004 -4.61891e-06 1.88822e-08
0.100003 -2.85347e-06 9.9306e-09
0.100002 -1.66058e-06 5.76458e-09
0.100001 -9.11632e-07 3.50127e-09
0.0999999 -4.59404e-07 1.89107e-09
0.0999984 -2.39916e-07 1.70605e-09
0.0999934 -2.00342e-07 7.09984e-09
0.0999689 -1.74518e-07 1.08494e-08
0.0998592 -1.26612e-07 1.69492e-08
0.0994261 -8.25572e-08 2.53381e-08
0.0979339 -5.56436e-08 3.51909e-08
0.0934943 -4.33846e-08 4.47518e-08
0.082295 -4.13842e-08 5.12296e-08
0.0591504 -4.22347e-08 5.12854e-08
0.0219569 -3.31948e-08 3.98232e-08
0.0135515 1.32975e-08 -3.42705e-08
0.0394284 1.67554e-08 -4.47109e-08
0.0616042 1.6556e-08 -4.90396e-08
0.0783421 1.47659e-08 -4.87106e-08
0.0893427 1.23849e-08 -4.37595e-08
0.09551 9.84834e-09 -3.59421e-08
0.0984082 7.42877e-09 -2.75494e-08
0.0995334 5.27603e-09 -1.98066e-08
0.0998893 3.41902e-09 -1.29216e-08
0.0999795 1.80268e-09 -6.72684e-09
0.0999973 4.10584e-10 -1.28882e-09
0.0999997 9.29378e-11 -3.05258e-10
0.0999999 -4.04802e-10 -1.14129e-10
0.0999999 -3.34096e-09 -1.00836e-10
0.0999999 -1.98915e-08 -9.40587e-11
0.0999999 -9.86926e-08 -1.05475e-10
0.1 -4.06542e-07 -1.62486e-10
0.1 -1.34902e-06 1.34405e-10
0.1 -3.26676e-06 5.72198e-09
0.100013 -4.1657e-06 4.14514e-08
0.100002 3.26839e-05 2.42899e-07
0.0999834 -2.65617e-06 3.47103e-07
0.099996 -1.19922e-05 2.61248e-07
0.100005 -1.20042e-05 1.51042e-07
0.100007 -8.87871e-06 7.48398e-08
0.100007 -5.71214e-06 3.51278e-08
0.100005 -3.40591e-06 1.74702e-08
0.100003 -1.93935e-06 9.88964e-09
0.100002 -1.07556e-06 5.93781e-09
0.100001 -6.44267e-07 3.0405e-09
0.0999991 -4.77349e-07 1.68096e-09
0.099994 -4.61096e-07 7.54037e-09
0.0999696 -3.37664e-07 1.09102e-08
0.0998599 -2.17388e-07 1.6993e-08
0.0994268 -1.25656e-07 2.562e-08
0.0979345 -7.08213e-08 3.58183e-08
0.0934949 -4.35488e-08 4.5745e-08
0.0822955 -3.20151e-08 5.25617e-08
0.0591508 -2.7714e-08 5.2814e-08
0.0219571 -2.0815e-08 4.10778e-08
0.0135515 7.46509e-09 -3.44706e-08
0.0394285 9.16331e-09 -4.4951e-08
0.0616042 9.03423e-09 -4.9276e-08
0.0783421 8.10372e-09 -4.89262e-08
0.0893427 6.86728e-09 -4.39475e-08
0.0955101 5.53263e-09 -3.60992e-08
0.0984083 4.23495e-09 -2.76745e-08
0.0995335 3.053e-09 -1.99002e-08
0.0998894 2.00498e-09 -1.29848e-08
0.0999796 1.06428e-09 -6.76048e-09
0.0999974 2.22724e-10 -1.29928e-09
0.0999998 -3.9003e-11 -2.8893e-10
0.1 -8.70403e-10 -7.72828e-11
0.1 -5.9799e-09 -5.58681e-11
0.1 -3.37827e-08 -6.6593e-11
0.1 -1.60652e-07 -1.55703e-10
0.1 -6.30047e-07 -4.62385e-10
0.1 -1.98141e-06 4.36946e-11
0.1 -4.32486e-06 1.28503e-08
0.100039 -4.6264e-06 9.16284e-08
0.100002 5.64495e-05 4.88114e-07
0.0999531 -5.2022e-06 6.97835e-07
0.0999901 -1.43558e-05 5.19496e-07
0.100006 -1.34359e-05 2.94995e-07
0.100011 -9.33706e-06 1.42517e-07
0.10001 -5.72904e-06 6.4637e-08
0.100008 -3.30678e-06 3.09289e-08
0.100005 -1.86801e-06 1.69255e-08
0.100003 -1.1237e-06 9.89758e-09
0.100001 -8.75987e-07 4.4202e-09
0.0999994 -5.67115e-07 5.81288e-09
0.0999943 -9.5591e-07 9.91583e-09
0.0999699 -6.31808e-07 1.16859e-08
0.0998601 -3.20974e-07 1.69207e-08
0.099427 -1.59039e-07 2.55645e-08
0.0979347 -7.97698e-08 3.60648e-08
0.093495 -4.26089e-08 4.63158e-08
0.0822957 -2.63071e-08 5.34017e-08
0.0591509 -1.93715e-08 5.38076e-08
0.0219571 -1.35875e-08 4.1919e-08
0.0135515 4.12471e-09 -3.4597e-08
0.0394285 4.93241e-09 -4.50998e-08
0.0616042 4.8526e-09 -4.94223e-08
0.0783421 4.37596e-09 -4.906e-08
0.0893428 3.74334e-09 -4.40647e-08
0.0955101 3.05185e-09 -3.61976e-08
0.0984083 2.3673e-09 -2.77533e-08
0.0995335 1.72994e-09 -1.99596e-08
0.0998895 1.14997e-09 -1.30251e-08
0.0999796 6.13968e-10 -6.78206e-09
0.0999974 1.15674e-10 -1.30823e-09
0.0999999 -8.71251e-11 -2.82014e-10
0.1 -9.37376e-10 -5.96141e-11
0.1 -6.11273e-09 -3.68269e-11
0.1 -3.34583e-08 -8.19708e-11
0.1 -1.54127e-07 -3.58761e-10
0.1 -5.84519e-07 -1.21498e-09
0.1 -1.78912e-06 -7.45865e-10
0.0999998 -4.02503e-06 2.25717e-08
0.100069 -6.43708e-06 1.74433e-07
0.0999979 4.66342e-06 8.89e-07
0.0999142 -1.45191e-05 1.29618e-06
0.0999861 -1.35897e-05 9.3343e-07
0.100008 -1.04324e-05 5.29025e-07
0.100015 -6.6903e-06 2.58552e-07
0.100013 -3.9515e-06 1.18771e-07
0.10001 -2.2618e-06 5.67218e-08
0.100006 -1.32408e-06 3.01703e-08
0.100004 -9.09024e-07 1.64518e-08
0.100002 -8.93374e-07 7.50772e-09
0.0999997 -2.19086e-06 5.06811e-10
0.0999943 -1.13576e-06 1.29087e-08
0.0999704 -7.15811e-07 1.22678e-08
0.0998605 -3.35638e-07 1.65384e-08
0.0994271 -1.38409e-07 2.51587e-08