# vtk DataFile Version 2.0
Presion
ASCII

DATASET STRUCTURED_GRID
DIMENSIONS   40   40   30

POINTS   48000   double
0.0125   0.0125   0.0166667
0.0375   0.0125   0.0166667
0.0625   0.0125   0.0166667
0.0875   0.0125   0.0166667
0.1125   0.0125   0.0166667
0.1375   0.0125   0.0166667
0.1625   0.0125   0.0166667
0.1875   0.0125   0.0166667
0.2125   0.0125   0.0166667
0.2375   0.0125   0.0166667
0.2625   0.0125   0.0166667
0.2875   0.0125   0.0166667
0.3125   0.0125   0.0166667
0.3375   0.0125   0.0166667
0.3625   0.0125   0.0166667
0.3875   0.0125   0.0166667
0.4125   0.0125   0.0166667
0.4375   0.0125   0.0166667
0.4625   0.0125   0.0166667
0.4875   0.0125   0.0166667
0.5125   0.0125   0.0166667
0.5375   0.0125   0.0166667
0.5625   0.0125   0.0166667
0.5875   0.0125   0.0166667
0.6125   0.0125   0.0166667
0.6375   0.0125   0.0166667
0.6625   0.0125   0.0166667
0.6875   0.0125   0.0166667
0.7125   0.0125   0.0166667
0.7375   0.0125   0.0166667
0.7625   0.0125   0.0166667
0.7875   0.0125   0.0166667
0.8125   0.0125   0.0166667
0.8375   0.0125   0.0166667
0.8625   0.0125   0.0166667
0.8875   0.0125   0.0166667
0.9125   0.0125   0.0166667
0.9375   0.0125   0.0166667
0.9625   0.0125   0.0166667
0.9875   0.0125   0.0166667
0.0125   0.0375   0.0166667
0.0375   0.0375   0.0166667
0.0625   0.0375   0.0166667
0.0875   0.0375   0.0166667
0.1125   0.0375   0.0166667
0.1375   0.0375   0.0166667
0.1625   0.0375   0.0166667
0.1875   0.0375   0.0166667
0.2125   0.0375   0.0166667
0.2375   0.0375   0.0166667
0.2625   0.0375   0.0166667
0.2875   0.0375   0.0166667
0.3125   0.0375   0.0166667
0.3375   0.0375   0.0166667
0.3625   0.0375   0.0166667
0.3875   0.0375   0.0166667
0.4125   0.0375   0.0166667
0.4375   0.0375   0.0166667
0.4625   0.0375   0.0166667
0.4875   0.0375   0.0166667
0.5125   0.0375   0.0166667
0.5375   0.0375   0.0166667
0.5625   0.0375   0.0166667
0.5875   0.0375   0.0166667
0.6125   0.0375   0.0166667
0.6375   0.0375   0.0166667
0.6625   0.0375   0.0166667
0.6875   0.0375   0.0166667
0.7125   0.0375   0.0166667
0.7375   0.0375   0.0166667
0.7625   0.0375   0.0166667
0.7875   0.0375   0.0166667
0.8125   0.0375   0.0166667
0.8375   0.0375   0.0166667
0.8625   0.0375   0.0166667
0.8875   0.0375   0.0166667
0.9125   0.0375   0.0166667
0.9375   0.0375   0.0166667
0.9625   0.0375   0.0166667
0.9875   0.0375   0.0166667
0.0125   0.0625   0.0166667
0.0375   0.0625   0.0166667
0.0625   0.0625   0.0166667
0.0875   0.0625   0.0166667
0.1125   0.0625   0.0166667
0.1375   0.0625   0.0166667
0.1625   0.0625   0.0166667
0.1875   0.0625   0.0166667
0.2125   0.0625   0.0166667
0.2375   0.0625   0.0166667
0.2625   0.0625   0.0166667
0.2875   0.0625   0.0166667
0.3125   0.0625   0.0166667
0.3375   0.0625   0.0166667
0.3625   0.0625   0.0166667
0.3875   0.0625   0.0166667
0.4125   0.0625   0.0166667
0.4375   0.0625   0.0166667
0.4625   0.0625   0.0166667
0.4875   0.0625   0.0166667
0.5125   0.0625   0.0166667
0.5375   0.0625   0.0166667
0.5625   0.0625   0.0166667
0.5875   0.0625   0.0166667
0.6125   0.0625   0.0166667
0.6375   0.0625   0.0166667
0.6625   0.0625   0.0166667
0.6875   0.0625   0.0166667
0.7125   0.0625   0.0166667
0.7375   0.0625   0.0166667
0.7625   0.0625   0.0166667
0.7875   0.0625   0.0166667
0.8125   0.0625   0.0166667
0.8375   0.0625   0.0166667
0.8625   0.0625   0.0166667
0.8875   0.0625   0.0166667
0.9125   0.0625   0.0166667
0.9375   0.0625   0.0166667
0.9625   0.0625   0.0166667
0.9875   0.0625   0.0166667
0.0125   0.0875   0.0166667
0.0375   0.0875   0.0166667
0.0625   0.0875   0.0166667
0.0875   0.0875   0.0166667
0.1125   0.0875   0.0166667
0.1375   0.0875   0.0166667
0.1625   0.0875   0.0166667
0.1875   0.0875   0.0166667
0.2125   0.0875   0.0166667
0.2375   0.0875   0.0166667
0.2625   0.0875   0.0166667
0.2875   0.0875   0.0166667
0.3125   0.0875   0.0166667
0.3375   0.0875   0.0166667
0.3625   0.0875   0.0166667
0.3875   0.0875   0.0166667
0.4125   0.0875   0.0166667
0.4375   0.0875   0.0166667
0.4625   0.0875   0.0166667
0.4875   0.0875   0.0166667
0.5125   0.0875   0.0166667
0.5375   0.0875   0.0166667
0.5625   0.0875   0.0166667
0.5875   0.0875   0.0166667
0.6125   0.0875   0.0166667
0.6375   0.0875   0.0166667
0.6625   0.0875   0.0166667
0.6875   0.0875   0.0166667
0.7125   0.0875   0.0166667
0.7375   0.0875   0.0166667
0.7625   0.0875   0.0166667
0.7875   0.0875   0.0166667
0.8125   0.0875   0.0166667
0.8375   0.0875   0.0166667
0.8625   0.0875   0.0166667
0.8875   0.0875   0.0166667
0.9125   0.0875   0.0166667
0.9375   0.0875   0.0166667
0.9625   0.0875   0.0166667
0.9875   0.0875   0.0166667
0.0125   0.1125   0.0166667
0.0375   0.1125   0.0166667
0.0625   0.1125   0.0166667
0.0875   0.1125   0.0166667
0.1125   0.1125   0.0166667
0.1375   0.1125   0.0166667
0.1625   0.1125   0.0166667
0.1875   0.1125   0.0166667
0.2125   0.1125   0.0166667
0.2375   0.1125   0.0166667
0.2625   0.1125   0.0166667
0.2875   0.1125   0.0166667
0.3125   0.1125   0.0166667
0.3375   0.1125   0.0166667
0.3625   0.1125   0.0166667
0.3875   0.1125   0.0166667
0.4125   0.1125   0.0166667
0.4375   0.1125   0.0166667
0.4625   0.1125   0.0166667
0.4875   0.1125   0.0166667
0.5125   0.1125   0.0166667
0.5375   0.1125   0.0166667
0.5625   0.1125   0.0166667
0.5875   0.1125   0.0166667
0.6125   0.1125   0.0166667
0.6375   0.1125   0.0166667
0.6625   0.1125   0.0166667
0.6875   0.1125   0.0166667
0.7125   0.1125   0.0166667
0.7375   0.1125   0.0166667
0.7625   0.1125   0.0166667
0.7875   0.1125   0.0166667
0.8125   0.1125   0.0166667
0.8375   0.1125   0.0166667
0.8625   0.1125   0.0166667
0.8875   0.1125   0.0166667
0.9125   0.1125   0.0166667
0.9375   0.1125   0.0166667
0.9625   0.1125   0.0166667
0.9875   0.1125   0.0166667
0.0125   0.1375   0.0166667
0.0375   0.1375   0.0166667
0.0625   0.1375   0.0166667
0.0875   0.1375   0.0166667
0.1125   0.1375   0.0166667
0.1375   0.1375   0.0166667
0.1625   0.1375   0.0166667
0.1875   0.1375   0.0166667
0.2125   0.1375   0.0166667
0.2375   0.1375   0.0166667
0.2625   0.1375   0.0166667
0.2875   0.1375   0.0166667
0.3125   0.1375   0.0166667
0.3375   0.1375   0.0166667
0.3625   0.1375   0.0166667
0.3875   0.1375   0.0166667
0.4125   0.1375   0.0166667
0.4375   0.1375   0.0166667
0.4625   0.1375   0.0166667
0.4875   0.1375   0.0166667
0.5125   0.1375   0.0166667
0.5375   0.1375   0.0166667
0.5625   0.1375   0.0166667
0.5875   0.1375   0.0166667
0.6125   0.1375   0.0166667
0.6375   0.1375   0.0166667
0.6625   0.1375   0.0166667
0.6875   0.1375   0.0166667
0.7125   0.1375   0.0166667
0.7375   0.1375   0.0166667
0.7625   0.1375   0.0166667
0.7875   0.1375   0.0166667
0.8125   0.1375   0.0166667
0.8375   0.1375   0.0166667
0.8625   0.1375   0.0166667
0.8875   0.1375   0.0166667
0.9125   0.1375   0.0166667
0.9375   0.1375   0.0166667
0.9625   0.1375   0.0166667
0.9875   0.1375   0.0166667
0.0125   0.1625   0.0166667
0.0375   0.1625   0.0166667
0.0625   0.1625   0.0166667
0.0875   0.1625   0.0166667
0.1125   0.1625   0.0166667
0.1375   0.1625   0.0166667
0.1625   0.1625   0.0166667
0.1875   0.1625   0.0166667
0.2125   0.1625   0.0166667
0.2375   0.1625   0.0166667
0.2625   0.1625   0.0166667
0.2875   0.1625   0.0166667
0.3125   0.1625   0.0166667
0.3375   0.1625   0.0166667
0.3625   0.1625   0.0166667
0.3875   0.1625   0.0166667
0.4125   0.1625   0.0166667
0.4375   0.1625   0.0166667
0.4625   0.1625   0.0166667
0.4875   0.1625   0.0166667
0.5125   0.1625   0.0166667
0.5375   0.1625   0.0166667
0.5625   0.1625   0.0166667
0.5875   0.1625   0.0166667
0.6125   0.1625   0.0166667
0.6375   0.1625   0.0166667
0.6625   0.1625   0.0166667
0.6875   0.1625   0.0166667
0.7125   0.1625   0.0166667
0.7375   0.1625   0.0166667
0.7625   0.1625   0.0166667
0.7875   0.1625   0.0166667
0.8125   0.1625   0.0166667
0.8375   0.1625   0.0166667
0.8625   0.1625   0.0166667
0.8875   0.1625   0.0166667
0.9125   0.1625   0.0166667
0.9375   0.1625   0.0166667
0.9625   0.1625   0.0166667
0.9875   0.1625   0.0166667
0.0125   0.1875   0.0166667
0.0375   0.1875   0.0166667
0.0625   0.1875   0.0166667
0.0875   0.1875   0.0166667
0.1125   0.1875   0.0166667
0.1375   0.1875   0.0166667
0.1625   0.1875   0.0166667
0.1875   0.1875   0.0166667
0.2125   0.1875   0.0166667
0.2375   0.1875   0.0166667
0.2625   0.1875   0.0166667
0.2875   0.1875   0.0166667
0.3125   0.1875   0.0166667
0.3375   0.1875   0.0166667
0.3625   0.1875   0.0166667
0.3875   0.1875   0.0166667
0.4125   0.1875   0.0166667
0.4375   0.1875   0.0166667
0.4625   0.1875   0.0166667
0.4875   0.1875   0.0166667
0.5125   0.1875   0.0166667
0.5375   0.1875   0.0166667
0.5625   0.1875   0.0166667
0.5875   0.1875   0.0166667
0.6125   0.1875   0.0166667
0.6375   0.1875   0.0166667
0.6625   0.1875   0.0166667
0.6875   0.1875   0.0166667
0.7125   0.1875   0.0166667
0.7375   0.1875   0.0166667
0.7625   0.1875   0.0166667
0.7875   0.1875   0.0166667
0.8125   0.1875   0.0166667
0.8375   0.1875   0.0166667
0.8625   0.1875   0.0166667
0.8875   0.1875   0.0166667
0.9125   0.1875   0.0166667
0.9375   0.1875   0.0166667
0.9625   0.1875   0.0166667
0.9875   0.1875   0.0166667
0.0125   0.2125   0.0166667
0.0375   0.2125   0.0166667
0.0625   0.2125   0.0166667
0.0875   0.2125   0.0166667
0.1125   0.2125   0.0166667
0.1375   0.2125   0.0166667
0.1625   0.2125   0.0166667
0.1875   0.2125   0.0166667
0.2125   0.2125   0.0166667
0.2375   0.2125   0.0166667
0.2625   0.2125   0.0166667
0.2875   0.2125   0.0166667
0.3125   0.2125   0.0166667
0.3375   0.2125   0.0166667
0.3625   0.2125   0.0166667
0.3875   0.2125   0.0166667
0.4125   0.2125   0.0166667
0.4375   0.2125   0.0166667
0.4625   0.2125   0.0166667
0.4875   0.2125   0.0166667
0.5125   0.2125   0.0166667
0.5375   0.2125   0.0166667
0.5625   0.2125   0.0166667
0.5875   0.2125   0.0166667
0.6125   0.2125   0.0166667
0.6375   0.2125   0.0166667
0.6625   0.2125   0.0166667
0.6875   0.2125   0.0166667
0.7125   0.2125   0.0166667
0.7375   0.2125   0.0166667
0.7625   0.2125   0.0166667
0.7875   0.2125   0.0166667
[...]
POINT_DATA   48000
SCALARS Presion double
LOOKUP_TABLE   Presion

0 0 0 0 0 0 0 0 0 0 0 0 0 0 0 0 0 0 0 0 0 0 0 0 0 0 0 0 0 0 0 -0.000248786 -0.00134694 -4.31949e-05 -0.000622225 -0.00496049 -0.000251078 -0.00128612 -3.19154e-05 0 0 0 0 0 0 0 0 0 0 0 0 0 0 0 0 0 0 0 0 0 0 0 0 0 0 0 0 0 0 0 0 -0.000277135 -0.00155098 -7.18124e-05 -0.000708575 -0.00609367 -0.00028028 -0.00145909 -5.72888e-05 0 0 0 0 0 0 0 0 0 0 0 0 0 0 0 0 0 0 0 0 0 0 0 0 0 0 0 0 0 0 0 0 -0.000307157 -0.00180418 -9.9641e-05 -0.00076938 -0.00740749 -0.000311203 -0.00166779 -8.3028e-05 0 0 0 0 0 0 0 0 0 0 0 0 0 0 0 0 0 0 0 0 0 0 0 0 0 0 0 0 0 0 0 0 -0.000339196 -0.0021237 -0.000125405 -0.000807586 -0.00859865 -0.000344142 -0.00192136 -0.000108768 0 0 0 0 0 0 0 0 0 0 0 0 0 0 0 0 0 0 0 0 0 0 0 0 0 0 0 0 0 0 0 0 -0.000373665 -0.00253468 -0.000148565 -0.000842433 -0.00860832 -0.000379441 -0.00223183 -0.000134468 0 0 0 0 0 0 0 0 0 0 0 0 0 0 0 0 0 0 0 0 0 0 0 0 0 0 0 0 0 0 0 0 -0.000411058 -0.00307503 -0.000169447 -0.000901233 -0.00481086 -0.000417508 -0.00261464 -0.000160428 0 0 0 0 0 0 0 0 0 0 0 0 0 0 0 0 0 0 0 0 0 0 0 0 0 0 0 0 0 0 0 0 -0.000451973 -0.00380369 -0.00018912 -0.00101218 -6.84743e-06 -0.00045884 -0.00308853 -0.000187194 0 0 0 0 0 0 0 0 0 0 0 0 0 0 0 0 0 0 0 0 0 0 0 0 0 0 0 0 0 0 0 0 -0.000497136 -0.00481518 -0.000209089 -0.00118778 -2.91219e-05 -0.000504046 -0.0036735 -0.000215386 0 0 0 0 0 0 0 0 0 0 0 0 0 0 0 0 0 0 0 0 0 0 0 0 0 0 0 0 0 0 0 0 -0.000547433 -0.00626548 -0.000230921 -0.00141578 -5.15901e-05 -0.00055388 -0.00438346 -0.000245536 0 0 0 0 0 0 0 0 0 0 0 0 0 0 0 0 0 0 0 0 0 0 0 0 0 0 0 0 0 0 0 0 -0.000603956 -0.00841645 -0.000255845 -0.00167431 -7.43013e-05 -0.000609278 -0.00520491 -0.000277998 0 0 0 0 0 0 0 0 0 0 0 0 0 0 0 0 0 0 0 0 0 0 0 0 0 0 0 0 0 0 0 0 -0.000668063 -0.0116983 -0.000284434 -0.00195086 -9.73285e-05 -0.000671402 -0.00604062 -0.000312938 0 0 0 0 0 0 0 0 0 0 0 0 0 0 0 0 0 0 0 0 0 0 0 0 0 0 0 0 0 0 0 0 -0.000741455 -0.0167052 -0.000316679 -0.00224658 -0.000120769 -0.000741707 -0.00657381 -0.000350394 0 0 0 0 0 0 0 0 0 0 0 0 0 0 0 0 0 0 0 0 0 0 0 0 0 0 0 0 0 0 0 0 -0.000826295 -0.0234445 -0.000353051 -0.00257988 -0.000144747 -0.000822012 -0.00600561 -0.000390364 0 0 0 0 0 0 0 0 0 0 0 0 0 0 0 0 0 0 0 0 0 0 0 0 0 0 0 0 0 0 0 0 -0.000925361 -0.0252392 -0.000396212 -0.00298774 -0.000169409 -0.000914611 -0.00291071 -0.000432892 0 0 0 0 0 0 0 0 0 0 0 0 0 0 0 0 0 0 0 0 0 0 0 0 0 0 0 0 0 0 0 0 -0.00104227 -9.45853e-06 -0.000450849 -0.00353317 -0.000194925 -0.00102241 1.41632e-05 -0.000478137 0 0 0 0 0 0 0 0 0 0 0 0 0 0 0 0 0 0 0 0 0 0 0 0 0 0 0 0 0 0 0 0 -0.00118182 -3.18412e-05 -0.000519211 -0.00431147 -0.000221483 -0.00114914 -9.94776e-06 -0.000526392 0 0 0 0 0 0 0 0 0 0 0 0 0 0 0 0 0 0 0 0 0 0 0 0 0 0 0 0 0 0 0 0 -0.00135047 -5.44067e-05 -0.00059585 -0.00543287 -0.000249292 -0.00129958 -3.55172e-05 -0.000578066 0 0 0 0 0 0 0 0 0 0 0 0 0 0 0 0 0 0 0 0 0 0 0 0 0 0 0 0 0 0 0 0 -0.0015571 -7.71865e-05 -0.000669234 -0.0070101 -0.000278579 -0.00147995 -6.19598e-05 -0.000633689 0 0 0 0 0 0 0 0 0 0 0 0 0 0 0 0 0 0 0 0 0 0 0 0 0 0 0 0 0 0 0 0 -0.00181421 -0.000100231 -0.000730864 -0.00912426 -0.000309596 -0.0016984 -8.86614e-05 -0.000694023 0 0 0 0 0 0 0 0 0 0 0 0 0 0 0 0 0 0 0 0 0 0 0 0 0 0 0 0 0 0 0 0 -0.00213984 -0.000123614 -0.000782917 -0.0116325 -0.000342636 -0.00196562 -0.000115198 -0.000760287 0 0 0 0 0 0 0 0 0 0 0 0 0 0 0 0 0 0 0 0 0 0 0 0 0 0 0 0 0 0 0 0 -0.00256085 -0.000147437 -0.000837232 -0.0133535 -0.000378041 -0.00229564 -0.000141481 -0.0008344 0 0 0 0 0 0 0 0 0 0 0 0 0 0 0 0 0 0 0 0 0 0 0 0 0 0 0 0 0 0 0 0 -0.00311856 -0.000171829 -0.000910735 -0.00945515 -0.000416227 -0.00270674 -0.000167781 -0.000919141 0 0 0 0 0 0 0 0 0 0 0 0 0 0 0 0 0 0 0 0 0 0 0 0 0 0 0 0 0 0 0 0 -0.00387916 -0.000196947 -0.00102141 1.37096e-05 -0.000457701 -0.00322201 -0.000194623 -0.00101815 0 0 0 0 0 0 0 0 0 0 0 0 0 0 0 0 0 0 0 0 0 0 0 0 0 0 0 0 0 0 0 0 -0.00495359 -0.000222975 -0.0011789 -1.16977e-05 -0.000503089 -0.00386853 -0.00022262 -0.00113565 0 0 0 0 0 0 0 0 0 0 0 0 0 0 0 0 0 0 0 0 0 0 0 0 0 0 0 0 0 0 0 0 -0.00653746 -0.000250128 -0.00137927 -3.95766e-05 -0.000553167 -0.00467169 -0.000252314 -0.00127612 0 0 0 0 0 0 0 0 0 0 0 0 0 0 0 0 0 0 0 0 0 0 0 0 0 0 0 0 0 0 0 0 -0.00899493 -0.000278655 -0.00161366 -6.84447e-05 -0.000608899 -0.00563525 -0.000284084 -0.0014444 0 0 0 0 0 0 0 0 0 0 0 0 0 0 0 0 0 0 0 0 0 0 0 0 0 0 0 0 0 0 0 0 -0.0130364 -0.000308844 -0.0018799 -9.66809e-05 -0.000671485 -0.00668162 -0.000318139 -0.00164621 0 0 0 0 0 0 0 0 0 0 0 0 0 0 0 0 0 0 0 0 0 0 0 0 0 0 0 0 0 0 0 0 -0.0200568 -0.000341035 -0.00218622 -0.000123033 -0.000742431 -0.00749046 -0.000354578 -0.00188895 0 0 0 0 0 0 0 0 0 0 0 0 0 0 0 0 0 0 0 0 0 0 0 0 0 0 0 0 0 0 0 0 -0.0322864 -0.000375634 -0.00255505 -0.000146993 -0.000823632 -0.00713381 -0.000393466 -0.00218248 0 0 0 0 0 0 0 0 0 0 0 0 0 0 0 0 0 0 0 0 0 0 0 0 0 0 0 0 0 0 0 0 -0.0464827 -0.000413127 -0.00302573 -0.000168911 -0.000917488 -0.00368373 -0.000434919 -0.00253947 0 0 0 0 0 0 0 0 0 0 0 0 0 0 0 0 0 0 0 0 0 0 0 0 0 0 0 0 0 0 0 0 -1.03384e-05 -0.000454102 -0.00366147 -0.000189857 -0.00102707 -6.96435e-06 -0.000479163 -0.00297484 0 0 0 0 0 0 0 0 0 0 0 0 0 0 0 0 0 0 0 0 0 0 0 0 0 0 0 0 0 0 0 0 -3.25593e-05 -0.000499274 -0.00455805 -0.000211304 -0.00115632 -2.96132e-05 -0.000526548 -0.0035029 0 0 0 0 0 0 0 0 0 0 0 0 0 0 0 0 0 0 0 0 0 0 0 0 0 0 0 0 0 0 0 0 -5.49329e-05 -0.000549518 -0.00584535 -0.00023478 -0.00131039 -5.24064e-05 -0.000577523 -0.00412899 0 0 0 0 0 0 0 0 0 0 0 0 0 0 0 0 0 0 0 0 0 0 0 0 0 0 0 0 0 0 0 0 -7.75014e-05 -0.000605913 -0.00769886 -0.000261554 -0.00149602 -7.53959e-05 -0.00063264 -0.00482783 0 0 0 0 0 0 0 0 0 0 0 0 0 0 0 0 0 0 0 0 0 0 0 0 0 0 0 0 0 0 0 0 -0.000100326 -0.000669795 -0.0103389 -0.000292391 -0.00172218 -9.86611e-05 -0.00069268 -0.00549191 0 0 0 0 0 0 0 0 0 0 0 0 0 0 0 0 0 0 0 0 0 0 0 0 0 0 0 0 0 0 0 0 -0.000123488 -0.000742846 -0.0138819 -0.000327535 -0.00200084 -0.000122306 -0.000758918 -0.00581922 0 0 0 0 0 0 0 0 0 0 0 0 0 0 0 0 0 0 0 0 0 0 0 0 0 0 0 0 0 0 0 0 -0.000147092 -0.000827194 -0.0174188 -0.000367205 -0.00234811 -0.000146459 -0.000833379 -0.0051286 0 0 0 0 0 0 0 0 0 0 0 0 0 0 0 0 0 0 0 0 0 0 0 0 0 0 0 0 0 0 0 0 -0.000171269 -0.000925571 -0.0147603 -0.000412559 -0.00278563 -0.00017127 -0.000919014 -0.00235997 0 0 0 0 0 0 0 0 0 0 0 0 0 0 0 0 0 0 0 0 0 0 0 0 0 0 0 0 0 0 0 0 -0.000196173 -0.00104153 1.28367e-05 -0.000465847 -0.00334211 -0.000196909 -0.00101969 1.17168e-05 0 0 0 0 0 0 0 0 0 0 0 0 0 0 0 0 0 0 0 0 0 0 0 0 0 0 0 0 0 0 0 0 -0.000221987 -0.00117977 -1.37382e-05 -0.000528202 -0.00405398 -0.000223567 -0.0011399 -1.09708e-05 0 0 0 0 0 0 0 0 0 0 0 0 0 0 0 0 0 0 0 0 0 0 0 0 0 0 0 0 0 0 0 0 -0.0003737 -0.00253408 -0.000148963 -0.000840326 -0.00860906 -0.000380286 -0.00223276 -0.000134689 0 0 0 0 0 0 0 0 0 0 0 0 0 0 0 0 0 0 0 0 0 0 0 0 0 0 0 0 0 0 0 0 -0.000411087 -0.00307443 -0.000165659 -0.000913661 -0.00481142 -0.000418421 -0.00261411 -0.000160584 0 0 0 0 0 0 0 0 0 0 0 0 0 0 0 0 0 0 0 0 0 0 0 0 0 0 0 0 0 0 0 0 -0.000452008 -0.0038031 -0.000179707 -0.0010165 -7.92026e-06 -0.000459793 -0.00308576 -0.000187428 0 0 0 0 0 0 0 0 0 0 0 0 0 0 0 0 0 0 0 0 0 0 0 0 0 0 0 0 0 0 0 0 -0.000497188 -0.00481462 -0.000193286 -0.00115938 -3.02207e-05 -0.000505011 -0.00366837 -0.000215703 0 0 0 0 0 0 0 0 0 0 0 0 0 0 0 0 0 0 0 0 0 0 0 0 0 0 0 0 0 0 0 0 -0.000547514 -0.00626499 -0.000208554 -0.00134347 -5.26749e-05 -0.000554829 -0.00437655 -0.000245818 0 0 0 0 0 0 0 0 0 0 0 0 0 0 0 0 0 0 0 0 0 0 0 0 0 0 0 0 0 0 0 0 -0.000604078 -0.00841604 -0.000226755 -0.00156529 -7.53403e-05 -0.00061018 -0.00519727 -0.000278043 0 0 0 0 0 0 0 0 0 0 0 0 0 0 0 0 0 0 0 0 0 0 0 0 0 0 0 0 0 0 0 0 -0.000668234 -0.0116979 -0.000247463 -0.00182443 -9.82987e-05 -0.000672229 -0.00603332 -0.000312512 0 0 0 0 0 0 0 0 0 0 0 0 0 0 0 0 0 0 0 0 0 0 0 0 0 0 0 0 0 0 0 0 -0.000741683 -0.016705 -0.000269359 -0.00212789 -0.000121655 -0.000742428 -0.00656751 -0.000349278 0 0 0 0 0 0 0 0 0 0 0 0 0 0 0 0 0 0 0 0 0 0 0 0 0 0 0 0 0 0 0 0 -0.000826586 -0.0234444 -0.00029411 -0.00249371 -0.000145537 -0.0008226 -0.0060004 -0.000388389 0 0 0 0 0 0 0 0 0 0 0 0 0 0 0 0 0 0 0 0 0 0 0 0 0 0 0 0 0 0 0 0 -0.000925715 -0.0252391 -0.000331901 -0.00295419 -0.000170091 -0.000915041 -0.00290623 -0.000429961 0 0 0 0 0 0 0 0 0 0 0 0 0 0 0 0 0 0 0 0 0 0 0 0 0 0 0 0 0 0 0 0 -0.00104269 -8.66626e-06 -0.000398784 -0.00356088 -0.000195486 -0.00102266 1.86005e-05 -0.000474235 0 0 0 0 0 0 0 0 0 0 0 0 0 0 0 0 0 0 0 0 0 0 0 0 0 0 0 0 0 0 0 0 -0.0011823 -3.11039e-05 -0.000501353 -0.00438807 -0.000221908 -0.00114919 -5.96336e-06 -0.000521594 0 0 0 0 0 0 0 0 0 0 0 0 0 0 0 0 0 0 0 0 0 0 0 0 0 0 0 0 0 0 0 0 -0.00135099 -5.37626e-05 -0.000620885 -0.00553194 -0.000249567 -0.00129942 -3.24337e-05 -0.000572588 0 0 0 0 0 0 0 0 0 0 0 0 0 0 0 0 0 0 0 0 0 0 0 0 0 0 0 0 0 0 0 0 -0.00155766 -7.66573e-05 -0.000722183 -0.00710521 -0.000278692 -0.00147959 -5.99538e-05 -0.000627937 0 0 0 0 0 0 0 0 0 0 0 0 0 0 0 0 0 0 0 0 0 0 0 0 0 0 0 0 0 0 0 0 -0.0018148 -9.98209e-05 -0.00078171 -0.00919869 -0.000309545 -0.00169784 -8.76088e-05 -0.000688594 0 0 0 0 0 0 0 0 0 0 0 0 0 0 0 0 0 0 0 0 0 0 0 0 0 0 0 0 0 0 0 0 -0.00214044 -0.000123315 -0.00080749 -0.0116817 -0.000342426 -0.00196487 -0.000114738 -0.000755869 0 0 0 0 0 0 0 0 0 0 0 0 0 0 0 0 0 0 0 0 0 0 0 0 0 0 0 0 0 0 0 0 -0.00256145 -0.000147234 -0.000832012 -0.0133826 -0.000377688 -0.00229474 -0.000141151 -0.000831576 0 0 0 0 0 0 0 0 0 0 0 0 0 0 0 0 0 0 0 0 0 0 0 0 0 0 0 0 0 0 0 0 -0.00311915 -0.000171708 -0.000895203 -0.00947497 -0.000415753 -0.00270573 -0.000167163 -0.000918149 0 0 0 0 0 0 0 0 0 0 0 0 0 0 0 0 0 0 0 0 0 0 0 0 0 0 0 0 0 0 0 0 -0.00387972 -0.000196901 -0.00103163 8.91428e-06 -0.000457133 -0.00322093 -0.000193466 -0.00101869 0 0 0 0 0 0 0 0 0 0 0 0 0 0 0 0 0 0 0 0 0 0 0 0 0 0 0 0 0 0 0 0 -0.0049541 -0.000223004 -0.00124707 -1.54287e-05 -0.00050246 -0.00386744 -0.000220895 -0.00113695 0 0 0 0 0 0 0 0 0 0 0 0 0 0 0 0 0 0 0 0 0 0 0 0 0 0 0 0 0 0 0 0 -0.00653791 -0.000250236 -0.00151449 -4.15125e-05 -0.000552511 -0.00467065 -0.000250214 -0.00127723 0 0 0 0 0 0 0 0 0 0 0 0 0 0 0 0 0 0 0 0 0 0 0 0 0 0 0 0 0 0 0 0 -0.0089953 -0.000278845 -0.00179479 -6.84289e-05 -0.000608251 -0.00563433 -0.000281973 -0.00144462 0 0 0 0 0 0 0 0 0 0 0 0 0 0 0 0 0 0 0 0 0 0 0 0 0 0 0 0 0 0 0 0 -0.0130367 -0.000309114 -0.0020755 -9.52037e-05 -0.000670882 -0.00668085 -0.000316482 -0.00164537 0 0 0 0 0 0 0 0 0 0 0 0 0 0 0 0 0 0 0 0 0 0 0 0 0 0 0 0 0 0 0 0 -0.020057 -0.000341377 -0.00235626 -0.000121115 -0.00074191 -0.00748987 -0.000353858 -0.00188749 0 0 0 0 0 0 0 0 0 0 0 0 0 0 0 0 0 0 0 0 0 0 0 0 0 0 0 0 0 0 0 0 -0.0322866 -0.00037603 -0.00266794 -0.000145918 -0.000823226 -0.00713338 -0.000394112 -0.00218127 0 0 0 0 0 0 0 0 0 0 0 0 0 0 0 0 0 0 0 0 0 0 0 0 0 0 0 0 0 0 0 0 -0.0464828 -0.000413555 -0.00305676 -0.000169898 -0.00091723 -0.00368338 -0.000437268 -0.00253951 0 0 0 0 0 0 0 0 0 0 0 0 0 0 0 0 0 0 0 0 0 0 0 0 0 0 0 0 0 0 0 0 -1.05862e-05 -0.000454536 -0.00360041 -0.000193761 -0.00102698 -5.61182e-06 -0.000483443 -0.00297692 0 0 0 0 0 0 0 0 0 0 0 0 0 0 0 0 0 0 0 0 0 0 0 0 0 0 0 0 0 0 0 0 -3.28161e-05 -0.000499688 -0.00443038 -0.000218428 -0.00115643 -2.8342e-05 -0.000532832 -0.00350729 0 0 0 0 0 0 0 0 0 0 0 0 0 0 0 0 0 0 0 0 0 0 0 0 0 0 0 0 0 0 0 0 -5.51893e-05 -0.000549887 -0.00569649 -0.000244818 -0.00131071 -5.12683e-05 -0.000585563 -0.0041353 0 0 0 0 0 0 0 0 0 0 0 0 0 0 0 0 0 0 0 0 0 0 0 0 0 0 0 0 0 0 0 0 -7.77505e-05 -0.000606211 -0.00756649 -0.000273695 -0.00149655 -7.44276e-05 -0.000641673 -0.00483525 0 0 0 0 0 0 0 0 0 0 0 0 0 0 0 0 0 0 0 0 0 0 0 0 0 0 0 0 0 0 0 0 -0.000100563 -0.00067 -0.0102418 -0.000305587 -0.00172292 -9.78832e-05 -0.000701421 -0.0054995 0 0 0 0 0 0 0 0 0 0 0 0 0 0 0 0 0 0 0 0 0 0 0 0 0 0 0 0 0 0 0 0 -0.000123711 -0.000742937 -0.0138216 -0.000340785 -0.00200176 -0.000121726 -0.000765847 -0.00582631 0 0 0 0 0 0 0 0 0 0 0 0 0 0 0 0 0 0 0 0 0 0 0 0 0 0 0 0 0 0 0 0 -0.000147301 -0.000827155 -0.0173858 -0.000379472 -0.00234919 -0.000146077 -0.000837237 -0.00513498 0 0 0 0 0 0 0 0 0 0 0 0 0 0 0 0 0 0 0 0 0 0 0 0 0 0 0 0 0 0 0 0 -0.000171462 -0.000925396 -0.0147404 -0.00042198 -0.00278683 -0.000171083 -0.000919348 -0.00236554 0 0 0 0 0 0 0 0 0 0 0 0 0 0 0 0 0 0 0 0 0 0 0 0 0 0 0 0 0 0 0 0 -0.000196348 -0.00104122 1.42164e-05 -0.000468921 -0.00334337 -0.000196918 -0.0010173 7.66337e-06 0 0 0 0 0 0 0 0 0 0 0 0 0 0 0 0 0 0 0 0 0 0 0 0 0 0 0 0 0 0 0 0 -0.000222143 -0.00117934 -1.34205e-05 -0.000520756 -0.00405524 -0.000223774 -0.00113668 -1.47404e-05 0 0 0 0 0 0 0 0 0 0 0 0 0 0 0 0 0 0 0 0 0 0 0 0 0 0 0 0 0 0 0 0 -0.000249063 -0.00134603 -4.47843e-05 -0.000577035 -0.00496338 -0.00025186 -0.00128251 -3.78975e-05 0 0 0 0 0 0 0 0 0 0 0 0 0 0 0 0 0 0 0 0 0 0 0 0 0 0 0 0 0 0 0 0 -0.00027736 -0.0015499 -7.69437e-05 -0.000636413 -0.00609627 -0.000281399 -0.00145933 -6.16569e-05 0 0 0 0 0 0 0 0 0 0 0 0 0 0 0 0 0 0 0 0 0 0 0 0 0 0 0 0 0 0 0 0 -0.000307331 -0.00180296 -0.000106575 -0.000697982 -0.00740968 -0.00031264 -0.00167223 -8.58564e-05 0 0 0 0 0 0 0 0 0 0 0 0 0 0 0 0 0 0 0 0 0 0 0 0 0 0 0 0 0 0 0 0 -0.000339328 -0.00212237 -0.00013093 -0.000762871 -0.00860036 -0.000345861 -0.00192834 -0.000110423 0 0 0 0 0 0 0 0 0 0 0 0 0 0 0 0 0 0 0 0 0 0 0 0 0 0 0 0 0 0 0 0 -0.000547606 -0.00626427 -0.000177626 -0.00132599 -5.34408e-05 -0.000556106 -0.00436665 -0.000245914 0 0 0 0 0 0 0 0 0 0 0 0 0 0 0 0 0 0 0 0 0 0 0 0 0 0 0 0 0 0 0 0 -0.000604193 -0.00841543 -0.000183409 -0.00153038 -7.60963e-05 -0.000611397 -0.00518538 -0.000277748 0 0 0 0 0 0 0 0 0 0 0 0 0 0 0 0 0 0 0 0 0 0 0 0 0 0 0 0 0 0 0 0 -0.000668379 -0.0116975 -0.000185674 -0.00177839 -9.90268e-05 -0.000673347 -0.00602148 -0.000311671 0 0 0 0 0 0 0 0 0 0 0 0 0 0 0 0 0 0 0 0 0 0 0 0 0 0 0 0 0 0 0 0 -0.000741863 -0.0167047 -0.000179836 -0.0020813 -0.000122341 -0.000743407 -0.00655707 -0.000347772 0 0 0 0 0 0 0 0 0 0 0 0 0 0 0 0 0 0 0 0 0 0 0 0 0 0 0 0 0 0 0 0 -0.000826803 -0.0234442 -0.000171968 -0.00245827 -0.000146167 -0.000823402 -0.00599159 -0.000386154 0 0 0 0 0 0 0 0 0 0 0 0 0 0 0 0 0 0 0 0 0 0 0 0 0 0 0 0 0 0 0 0 -0.000925971 -0.025239 -0.000190565 -0.00293976 -0.000170654 -0.000915631 -0.00289871 -0.000426998 0 0 0 0 0 0 0 0 0 0 0 0 0 0 0 0 0 0 0 0 0 0 0 0 0 0 0 0 0 0 0 0 -0.00104298 -7.50864e-06 -0.000277533 -0.00357164 -0.00019597 -0.00102301 2.22866e-05 -0.000470606 0 0 0 0 0 0 0 0 0 0 0 0 0 0 0 0 0 0 0 0 0 0 0 0 0 0 0 0 0 0 0 0 -0.00118263 -3.00403e-05 -0.000445359 -0.00441983 -0.000222302 -0.00114928 -2.69281e-06 -0.00051743 0 0 0 0 0 0 0 0 0 0 0 0 0 0 0 0 0 0 0 0 0 0 0 0 0 0 0 0 0 0 0 0 -0.00135136 -5.28618e-05 -0.000645444 -0.00557433 -0.000249859 -0.00129923 -2.99956e-05 -0.00056809 0 0 0 0 0 0 0 0 0 0 0 0 0 0 0 0 0 0 0 0 0 0 0 0 0 0 0 0 0 0 0 0 -0.00155805 -7.5954e-05 -0.000794779 -0.00714689 -0.000278876 -0.00147912 -5.84959e-05 -0.000623392 0 0 0 0 0 0 0 0 0 0 0 0 0 0 0 0 0 0 0 0 0 0 0 0 0 0 0 0 0 0 0 0 -0.0018152 -9.93138e-05 -0.000845358 -0.00923181 -0.000309617 -0.0016971 -8.69776e-05 -0.000684375 0 0 0 0 0 0 0 0 0 0 0 0 0 0 0 0 0 0 0 0 0 0 0 0 0 0 0 0 0 0 0 0 -0.00214085 -0.000122976 -0.000823394 -0.0117038 -0.000342389 -0.00196387 -0.00011454 -0.000752383 0 0 0 0 0 0 0 0 0 0 0 0 0 0 0 0 0 0 0 0 0 0 0 0 0 0 0 0 0 0 0 0 -0.00256185 -0.000147023 -0.000804991 -0.0133957 -0.000377549 -0.00229352 -0.000140882 -0.000829158 0 0 0 0 0 0 0 0 0 0 0 0 0 0 0 0 0 0 0 0 0 0 0 0 0 0 0 0 0 0 0 0 -0.00311954 -0.000171592 -0.000874371 -0.00948384 -0.000415524 -0.00270434 -0.00016636 -0.000916942 0 0 0 0 0 0 0 0 0 0 0 0 0 0 0 0 0 0 0 0 0 0 0 0 0 0 0 0 0 0 0 0 -0.00388008 -0.000196859 -0.00108682 4.05987e-06 -0.000456833 -0.00321944 -0.000191833 -0.00101856 0 0 0 0 0 0 0 0 0 0 0 0 0 0 0 0 0 0 0 0 0 0 0 0 0 0 0 0 0 0 0 0 -0.00495442 -0.000223037 -0.00142402 -1.94637e-05 -0.000502108 -0.00386593 -0.000218378 -0.00113748 0 0 0 0 0 0 0 0 0 0 0 0 0 0 0 0 0 0 0 0 0 0 0 0 0 0 0 0 0 0 0 0 -0.00653819 -0.000250356 -0.00182365 -4.41401e-05 -0.00055213 -0.0046692 -0.000247006 -0.00127794 0 0 0 0 0 0 0 0 0 0 0 0 0 0 0 0 0 0 0 0 0 0 0 0 0 0 0 0 0 0 0 0 -0.00899553 -0.000279068 -0.00217291 -6.94724e-05 -0.000607866 -0.00563301 -0.00027848 -0.00144516 0 0 0 0 0 0 0 0 0 0 0 0 0 0 0 0 0 0 0 0 0 0 0 0 0 0 0 0 0 0 0 0 -0.0130369 -0.000309451 -0.00246936 -9.49412e-05 -0.000670519 -0.00667974 -0.000313244 -0.00164568 0 0 0 0 0 0 0 0 0 0 0 0 0 0 0 0 0 0 0 0 0 0 0 0 0 0 0 0 0 0 0 0 -0.0200571 -0.000341826 -0.00269226 -0.000120187 -0.000741595 -0.00748901 -0.000351455 -0.0018878 0 0 0 0 0 0 0 0 0 0 0 0 0 0 0 0 0 0 0 0 0 0 0 0 0 0 0 0 0 0 0 0 -0.0322866 -0.000376578 -0.00288564 -0.000145132 -0.000822985 -0.00713276 -0.00039309 -0.00218203 0 0 0 0 0 0 0 0 0 0 0 0 0 0 0 0 0 0 0 0 0 0 0 0 0 0 0 0 0 0 0 0 -0.0464828 -0.000414176 -0.00313056 -0.000170001 -0.000917086 -0.00368286 -0.00043813 -0.00254119 0 0 0 0 0 0 0 0 0 0 0 0 0 0 0 0 0 0 0 0 0 0 0 0 0 0 0 0 0 0 0 0 -1.07302e-05 -0.000455197 -0.00347014 -0.00019525 -0.00102696 -3.75315e-06 -0.000486687 -0.00297984 0 0 0 0 0 0 0 0 0 0 0 0 0 0 0 0 0 0 0 0 0 0 0 0 0 0 0 0 0 0 0 0 -3.29724e-05 -0.000500351 -0.00415921 -0.000221437 -0.00115654 -2.65918e-05 -0.000538848 -0.00351147 0 0 0 0 0 0 0 0 0 0 0 0 0 0 0 0 0 0 0 0 0 0 0 0 0 0 0 0 0 0 0 0 -5.53528e-05 -0.000550509 -0.00539351 -0.000249102 -0.00131095 -4.97077e-05 -0.000594272 -0.00414044 0 0 0 0 0 0 0 0 0 0 0 0 0 0 0 0 0 0 0 0 0 0 0 0 0 0 0 0 0 0 0 0 -7.7917e-05 -0.000606743 -0.00730955 -0.00027869 -0.00149694 -7.31096e-05 -0.000652117 -0.0048408 0 0 0 0 0 0 0 0 0 0 0 0 0 0 0 0 0 0 0 0 0 0 0 0 0 0 0 0 0 0 0 0 -0.000100729 -0.000670389 -0.0100607 -0.000310539 -0.00172344 -9.68306e-05 -0.000711767 -0.00550492 0 0 0 0 0 0 0 0 0 0 0 0 0 0 0 0 0 0 0 0 0 0 0 0 0 0 0 0 0 0 0 0 -0.000123874 -0.000743132 -0.0137121 -0.000344899 -0.00200241 -0.000120938 -0.000773937 -0.0058312 0 0 0 0 0 0 0 0 0 0 0 0 0 0 0 0 0 0 0 0 0 0 0 0 0 0 0 0 0 0 0 0 -0.000147459 -0.00082712 -0.0173269 -0.000381994 -0.00234994 -0.000145541 -0.000841364 -0.00513926 0 0 0 0 0 0 0 0 0 0 0 0 0 0 0 0 0 0 0 0 0 0 0 0 0 0 0 0 0 0 0 0 -0.000171613 -0.000925123 -0.0147051 -0.000422112 -0.00278765 -0.000170789 -0.000919035 -0.00236937 0 0 0 0 0 0 0 0 0 0 0 0 0 0 0 0 0 0 0 0 0 0 0 0 0 0 0 0 0 0 0 0 -0.000196491 -0.00104073 1.44829e-05 -0.00046566 -0.00334422 -0.000196864 -0.00101393 3.83634e-06 0 0 0 0 0 0 0 0 0 0 0 0 0 0 0 0 0 0 0 0 0 0 0 0 0 0 0 0 0 0 0 0 -0.000222276 -0.00117868 -1.39136e-05 -0.000513129 -0.00405608 -0.000223968 -0.00113316 -1.8401e-05 0 0 0 0 0 0 0 0 0 0 0 0 0 0 0 0 0 0 0 0 0 0 0 0 0 0 0 0 0 0 0 0 -0.000249184 -0.00134526 -4.65012e-05 -0.000564951 -0.00496417 -0.000252314 -0.00128189 -4.11317e-05 0 0 0 0 0 0 0 0 0 0 0 0 0 0 0 0 0 0 0 0 0 0 0 0 0 0 0 0 0 0 0 0 -0.000277469 -0.00154906 -7.97757e-05 -0.000621519 -0.00609697 -0.000282121 -0.00146347 -6.43242e-05 0 0 0 0 0 0 0 0 0 0 0 0 0 0 0 0 0 0 0 0 0 0 0 0 0 0 0 0 0 0 0 0 -0.000307428 -0.00180206 -0.00010973 -0.00068351 -0.00741026 -0.000313623 -0.00168113 -8.79457e-05 0 0 0 0 0 0 0 0 0 0 0 0 0 0 0 0 0 0 0 0 0 0 0 0 0 0 0 0 0 0 0 0 -0.000339415 -0.0021214 -0.000133001 -0.000752368 -0.0086008 -0.000347083 -0.0019402 -0.000112021 0 0 0 0 0 0 0 0 0 0 0 0 0 0 0 0 0 0 0 0 0 0 0 0 0 0 0 0 0 0 0 0 -0.000373847 -0.00253222 -0.000147823 -0.000830604 -0.00860985 -0.000382813 -0.00224996 -0.000136671 0 0 0 0 0 0 0 0 0 0 0 0 0 0 0 0 0 0 0 0 0 0 0 0 0 0 0 0 0 0 0 0 -0.000411224 -0.00307247 -0.000154461 -0.00092191 -0.00481203 -0.000421199 -0.00262505 -0.000162112 0 0 0 0 0 0 0 0 0 0 0 0 0 0 0 0 0 0 0 0 0 0 0 0 0 0 0 0 0 0 0 0 -0.000452146 -0.00380111 -0.000154947 -0.00103113 -9.06453e-06 -0.000462726 -0.00308581 -0.000188628 0 0 0 0 0 0 0 0 0 0 0 0 0 0 0 0 0 0 0 0 0 0 0 0 0 0 0 0 0 0 0 0 -0.000497338 -0.0048127 -0.000152019 -0.00116375 -3.14407e-05 -0.000507998 -0.00365589 -0.000216515 0 0 0 0 0 0 0 0 0 0 0 0 0 0 0 0 0 0 0 0 0 0 0 0 0 0 0 0 0 0 0 0 -0.000826949 -0.0234439 -5.40286e-06 -0.00244766 -0.00014664 -0.000824426 -0.00597813 -0.000384061 0 0 0 0 0 0 0 0 0 0 0 0 0 0 0 0 0 0 0 0 0 0 0 0 0 0 0 0 0 0 0 0 -0.000926139 -0.0252388 2.46248e-06 -0.00293622 -0.000171096 -0.000916378 -0.002