# vtk DataFile Version 2.0
Presion
ASCII

DATASET STRUCTURED_GRID
DIMENSIONS   40   40   30

POINTS   48000   double
0.0125   0.0125   0.0166667
0.0375   0.0125   0.0166667
0.0625   0.0125   0.0166667
0.0875   0.0125   0.0166667
0.1125   0.0125   0.0166667
0.1375   0.0125   0.0166667
0.1625   0.0125   0.0166667
0.1875   0.0125   0.0166667
0.2125   0.0125   0.0166667
0.2375   0.0125   0.0166667
0.2625   0.0125   0.0166667
0.2875   0.0125   0.0166667
0.3125   0.0125   0.0166667
0.3375   0.0125   0.0166667
0.3625   0.0125   0.0166667
0.3875   0.0125   0.0166667
0.4125   0.0125   0.0166667
0.4375   0.0125   0.0166667
0.4625   0.0125   0.0166667
0.4875   0.0125   0.0166667
0.5125   0.0125   0.0166667
0.5375   0.0125   0.0166667
0.5625   0.0125   0.0166667
0.5875   0.0125   0.0166667
0.6125   0.0125   0.0166667
0.6375   0.0125   0.0166667
0.6625   0.0125   0.0166667
0.6875   0.0125   0.0166667
0.7125   0.0125   0.0166667
0.7375   0.0125   0.0166667
0.7625   0.0125   0.0166667
0.7875   0.0125   0.0166667
0.8125   0.0125   0.0166667
0.8375   0.0125   0.0166667
0.8625   0.0125   0.0166667
0.8875   0.0125   0.0166667
0.9125   0.0125   0.0166667
0.9375   0.0125   0.0166667
0.9625   0.0125   0.0166667
0.9875   0.0125   0.0166667
0.0125   0.0375   0.0166667
0.0375   0.0375   0.0166667
0.0625   0.0375   0.0166667
0.0875   0.0375   0.0166667
0.1125   0.0375   0.0166667
0.1375   0.0375   0.0166667
0.1625   0.0375   0.0166667
0.1875   0.0375   0.0166667
0.2125   0.0375   0.0166667
0.2375   0.0375   0.0166667
0.2625   0.0375   0.0166667
0.2875   0.0375   0.0166667
0.3125   0.0375   0.0166667
0.3375   0.0375   0.0166667
0.3625   0.0375   0.0166667
0.3875   0.0375   0.0166667
0.4125   0.0375   0.0166667
0.4375   0.0375   0.0166667
0.4625   0.0375   0.0166667
0.4875   0.0375   0.0166667
0.5125   0.0375   0.0166667
0.5375   0.0375   0.0166667
0.5625   0.0375   0.0166667
0.5875   0.0375   0.0166667
0.6125   0.0375   0.0166667
0.6375   0.0375   0.0166667
0.6625   0.0375   0.0166667
0.6875   0.0375   0.0166667
0.7125   0.0375   0.0166667
0.7375   0.0375   0.0166667
0.7625   0.0375   0.0166667
0.7875   0.0375   0.0166667
0.8125   0.0375   0.0166667
0.8375   0.0375   0.0166667
0.8625   0.0375   0.0166667
0.8875   0.0375   0.0166667
0.9125   0.0375   0.0166667
0.9375   0.0375   0.0166667
0.9625   0.0375   0.0166667
0.9875   0.0375   0.0166667
0.0125   0.0625   0.0166667
0.0375   0.0625   0.0166667
0.0625   0.0625   0.0166667
0.0875   0.0625   0.0166667
0.1125   0.0625   0.0166667
0.1375   0.0625   0.0166667
0.1625   0.0625   0.0166667
0.1875   0.0625   0.0166667
0.2125   0.0625   0.0166667
0.2375   0.0625   0.0166667
0.2625   0.0625   0.0166667
0.2875   0.0625   0.0166667
0.3125   0.0625   0.0166667
0.3375   0.0625   0.0166667
0.3625   0.0625   0.0166667
0.3875   0.0625   0.0166667
0.4125   0.0625   0.0166667
0.4375   0.0625   0.0166667
0.4625   0.0625   0.0166667
0.4875   0.0625   0.0166667
0.5125   0.0625   0.0166667
0.5375   0.0625   0.0166667
0.5625   0.0625   0.0166667
0.5875   0.0625   0.0166667
0.6125   0.0625   0.0166667
0.6375   0.0625   0.0166667
0.6625   0.0625   0.0166667
0.6875   0.0625   0.0166667
0.7125   0.0625   0.0166667
0.7375   0.0625   0.0166667
0.7625   0.0625   0.0166667
0.7875   0.0625   0.0166667
0.8125   0.0625   0.0166667
0.8375   0.0625   0.0166667
0.8625   0.0625   0.0166667
0.8875   0.0625   0.0166667
0.9125   0.0625   0.0166667
0.9375   0.0625   0.0166667
0.9625   0.0625   0.0166667
0.9875   0.0625   0.0166667
0.0125   0.0875   0.0166667
0.0375   0.0875   0.0166667
0.0625   0.0875   0.0166667
0.0875   0.0875   0.0166667
0.1125   0.0875   0.0166667
0.1375   0.0875   0.0166667
0.1625   0.0875   0.0166667
0.1875   0.0875   0.0166667
0.2125   0.0875   0.0166667
0.2375   0.0875   0.0166667
0.2625   0.0875   0.0166667
0.2875   0.0875   0.0166667
0.3125   0.0875   0.0166667
0.3375   0.0875   0.0166667
0.3625   0.0875   0.0166667
0.3875   0.0875   0.0166667
0.4125   0.0875   0.0166667
0.4375   0.0875   0.0166667
0.4625   0.0875   0.0166667
0.4875   0.0875   0.0166667
0.5125   0.0875   0.0166667
0.5375   0.0875   0.0166667
0.5625   0.0875   0.0166667
0.5875   0.0875   0.0166667
0.6125   0.0875   0.0166667
0.6375   0.0875   0.0166667
0.6625   0.0875   0.0166667
0.6875   0.0875   0.0166667
0.7125   0.0875   0.0166667
0.7375   0.0875   0.0166667
0.7625   0.0875   0.0166667
0.7875   0.0875   0.0166667
0.8125   0.0875   0.0166667
0.8375   0.0875   0.0166667
0.8625   0.0875   0.0166667
0.8875   0.0875   0.0166667
0.9125   0.0875   0.0166667
0.9375   0.0875   0.0166667
0.9625   0.0875   0.0166667
0.9875   0.0875   0.0166667
0.0125   0.1125   0.0166667
0.0375   0.1125   0.0166667
0.0625   0.1125   0.0166667
0.0875   0.1125   0.0166667
0.1125   0.1125   0.0166667
0.1375   0.1125   0.0166667
0.1625   0.1125   0.0166667
0.1875   0.1125   0.0166667
0.2125   0.1125   0.0166667
0.2375   0.1125   0.0166667
0.2625   0.1125   0.0166667
0.2875   0.1125   0.0166667
0.3125   0.1125   0.0166667
0.3375   0.1125   0.0166667
0.3625   0.1125   0.0166667
0.3875   0.1125   0.0166667
0.4125   0.1125   0.0166667
0.4375   0.1125   0.0166667
0.4625   0.1125   0.0166667
0.4875   0.1125   0.0166667
0.5125   0.1125   0.0166667
0.5375   0.1125   0.0166667
0.5625   0.1125   0.0166667
0.5875   0.1125   0.0166667
0.6125   0.1125   0.0166667
0.6375   0.1125   0.0166667
0.6625   0.1125   0.0166667
0.6875   0.1125   0.0166667
0.7125   0.1125   0.0166667
0.7375   0.1125   0.0166667
0.7625   0.1125   0.0166667
0.7875   0.1125   0.0166667
0.8125   0.1125   0.0166667
0.8375   0.1125   0.0166667
0.8625   0.1125   0.0166667
0.8875   0.1125   0.0166667
0.9125   0.1125   0.0166667
0.9375   0.1125   0.0166667
0.9625   0.1125   0.0166667
0.9875   0.1125   0.0166667
0.0125   0.1375   0.0166667
0.0375   0.1375   0.0166667
0.0625   0.1375   0.0166667
0.0875   0.1375   0.0166667
0.1125   0.1375   0.0166667
0.1375   0.1375   0.0166667
0.1625   0.1375   0.0166667
0.1875   0.1375   0.0166667
0.2125   0.1375   0.0166667
0.2375   0.1375   0.0166667
0.2625   0.1375   0.0166667
0.2875   0.1375   0.0166667
0.3125   0.1375   0.0166667
0.3375   0.1375   0.0166667
0.3625   0.1375   0.0166667
0.3875   0.1375   0.0166667
0.4125   0.1375   0.0166667
0.4375   0.1375   0.0166667
0.4625   0.1375   0.0166667
0.4875   0.1375   0.0166667
0.5125   0.1375   0.0166667
0.5375   0.1375   0.0166667
0.5625   0.1375   0.0166667
0.5875   0.1375   0.0166667
0.6125   0.1375   0.0166667
0.6375   0.1375   0.0166667
0.6625   0.1375   0.0166667
0.6875   0.1375   0.0166667
0.7125   0.1375   0.0166667
0.7375   0.1375   0.0166667
0.7625   0.1375   0.0166667
0.7875   0.1375   0.0166667
0.8125   0.1375   0.0166667
0.8375   0.1375   0.0166667
0.8625   0.1375   0.0166667
0.8875   0.1375   0.0166667
0.9125   0.1375   0.0166667
0.9375   0.1375   0.0166667
0.9625   0.1375   0.0166667
0.9875   0.1375   0.0166667
0.0125   0.1625   0.0166667
0.0375   0.1625   0.0166667
0.0625   0.1625   0.0166667
0.0875   0.1625   0.0166667
0.1125   0.1625   0.0166667
0.1375   0.1625   0.0166667
0.1625   0.1625   0.0166667
0.1875   0.1625   0.0166667
0.2125   0.1625   0.0166667
0.2375   0.1625   0.0166667
0.2625   0.1625   0.0166667
0.2875   0.1625   0.0166667
0.3125   0.1625   0.0166667
0.3375   0.1625   0.0166667
0.3625   0.1625   0.0166667
0.3875   0.1625   0.0166667
0.4125   0.1625   0.0166667
0.4375   0.1625   0.0166667
0.4625   0.1625   0.0166667
0.4875   0.1625   0.0166667
0.5125   0.1625   0.0166667
0.5375   0.1625   0.0166667
0.5625   0.1625   0.0166667
0.5875   0.1625   0.0166667
0.6125   0.1625   0.0166667
0.6375   0.1625   0.0166667
0.6625   0.1625   0.0166667
0.6875   0.1625   0.0166667
0.7125   0.1625   0.0166667
0.7375   0.1625   0.0166667
0.7625   0.1625   0.0166667
0.7875   0.1625   0.0166667
0.8125   0.1625   0.0166667
0.8375   0.1625   0.0166667
0.8625   0.1625   0.0166667
0.8875   0.1625   0.0166667
0.9125   0.1625   0.0166667
0.9375   0.1625   0.0166667
0.9625   0.1625   0.0166667
0.9875   0.1625   0.0166667
0.0125   0.1875   0.0166667
0.0375   0.1875   0.0166667
0.0625   0.1875   0.0166667
0.0875   0.1875   0.0166667
0.1125   0.1875   0.0166667
0.1375   0.1875   0.0166667
0.1625   0.1875   0.0166667
0.1875   0.1875   0.0166667
0.2125   0.1875   0.0166667
0.2375   0.1875   0.0166667
0.2625   0.1875   0.0166667
0.2875   0.1875   0.0166667
0.3125   0.1875   0.0166667
0.3375   0.1875   0.0166667
0.3625   0.1875   0.0166667
0.3875   0.1875   0.0166667
0.4125   0.1875   0.0166667
0.4375   0.1875   0.0166667
0.4625   0.1875   0.0166667
0.4875   0.1875   0.0166667
0.5125   0.1875   0.0166667
0.5375   0.1875   0.0166667
0.5625   0.1875   0.0166667
0.5875   0.1875   0.0166667
0.6125   0.1875   0.0166667
0.6375   0.1875   0.0166667
0.6625   0.1875   0.0166667
0.6875   0.1875   0.0166667
0.7125   0.1875   0.0166667
0.7375   0.1875   0.0166667
0.7625   0.1875   0.0166667
0.7875   0.1875   0.0166667
0.8125   0.1875   0.0166667
0.8375   0.1875   0.0166667
0.8625   0.1875   0.0166667
0.8875   0.1875   0.0166667
0.9125   0.1875   0.0166667
0.9375   0.1875   0.0166667
0.9625   0.1875   0.0166667
0.9875   0.1875   0.0166667
0.0125   0.2125   0.0166667
0.0375   0.2125   0.0166667
0.0625   0.2125   0.0166667
0.0875   0.2125   0.0166667
0.1125   0.2125   0.0166667
0.1375   0.2125   0.0166667
0.1625   0.2125   0.0166667
0.1875   0.2125   0.0166667
0.2125   0.2125   0.0166667
0.2375   0.2125   0.0166667
0.2625   0.2125   0.0166667
0.2875   0.2125   0.0166667
0.3125   0.2125   0.0166667
0.3375   0.2125   0.0166667
0.3625   0.2125   0.0166667
0.3875   0.2125   0.0166667
0.4125   0.2125   0.0166667
0.4375   0.2125   0.0166667
0.4625   0.2125   0.0166667
0.4875   0.2125   0.0166667
0.5125   0.2125   0.0166667
0.5375   0.2125   0.0166667
0.5625   0.2125   0.0166667
0.5875   0.2125   0.0166667
0.6125   0.2125   0.0166667
0.6375   0.2125   0.0166667
0.6625   0.2125   0.0166667
0.6875   0.2125   0.0166667
0.7125   0.2125   0.0166667
0.7375   0.2125   0.0166667
0.7625   0.2125   0.0166667
0.7875   0.2125   0.0166667
[...]
POINT_DATA   48000
SCALARS Presion double
LOOKUP_TABLE   Presion

0 0 0 0 0 0 0 0 0 0 0 0 0 0 0 0 0 0 0 0 0 0 0 0 0 0 0 0 0 0 0 -7.16941e-05 -0.000278996 -1.17817e-05 -0.000136515 -0.00100631 -7.1682e-05 -0.000265771 -1.22599e-05 0 0 0 0 0 0 0 0 0 0 0 0 0 0 0 0 0 0 0 0 0 0 0 0 0 0 0 0 0 0 0 0 -7.77108e-05 -0.00031935 -2.16286e-05 -0.000148033 -0.00123561 -7.77552e-05 -0.000299944 -2.12339e-05 0 0 0 0 0 0 0 0 0 0 0 0 0 0 0 0 0 0 0 0 0 0 0 0 0 0 0 0 0 0 0 0 -8.3768e-05 -0.000369769 -3.09916e-05 -0.000159117 -0.00150157 -8.38789e-05 -0.000341442 -3.01231e-05 0 0 0 0 0 0 0 0 0 0 0 0 0 0 0 0 0 0 0 0 0 0 0 0 0 0 0 0 0 0 0 0 -8.99608e-05 -0.00043373 -3.94714e-05 -0.000169737 -0.00174274 -9.01409e-05 -0.00039213 -3.86452e-05 0 0 0 0 0 0 0 0 0 0 0 0 0 0 0 0 0 0 0 0 0 0 0 0 0 0 0 0 0 0 0 0 -9.64007e-05 -0.000516327 -4.70766e-05 -0.000181069 -0.00174455 -9.66427e-05 -0.000454452 -4.6644e-05 0 0 0 0 0 0 0 0 0 0 0 0 0 0 0 0 0 0 0 0 0 0 0 0 0 0 0 0 0 0 0 0 -0.000103217 -0.00062524 -5.4201e-05 -0.000195488 -0.000974987 -0.000103501 -0.000531521 -5.41078e-05 0 0 0 0 0 0 0 0 0 0 0 0 0 0 0 0 0 0 0 0 0 0 0 0 0 0 0 0 0 0 0 0 -0.000110563 -0.000772403 -6.14095e-05 -0.000215445 -3.36158e-06 -0.000110853 -0.000627094 -6.11422e-05 0 0 0 0 0 0 0 0 0 0 0 0 0 0 0 0 0 0 0 0 0 0 0 0 0 0 0 0 0 0 0 0 -0.000118617 -0.000976959 -6.91115e-05 -0.000242348 -1.08896e-05 -0.000118858 -0.000745174 -6.79139e-05 0 0 0 0 0 0 0 0 0 0 0 0 0 0 0 0 0 0 0 0 0 0 0 0 0 0 0 0 0 0 0 0 -0.00012759 -0.00127051 -7.7284e-05 -0.000276654 -1.8356e-05 -0.000127705 -0.000888553 -7.45894e-05 0 0 0 0 0 0 0 0 0 0 0 0 0 0 0 0 0 0 0 0 0 0 0 0 0 0 0 0 0 0 0 0 -0.000137737 -0.00170608 -8.54281e-05 -0.00031642 -2.57028e-05 -0.000137618 -0.00105453 -8.12939e-05 0 0 0 0 0 0 0 0 0 0 0 0 0 0 0 0 0 0 0 0 0 0 0 0 0 0 0 0 0 0 0 0 -0.000149364 -0.00237082 -9.28338e-05 -0.000363425 -3.28846e-05 -0.000148867 -0.00122347 -8.81053e-05 0 0 0 0 0 0 0 0 0 0 0 0 0 0 0 0 0 0 0 0 0 0 0 0 0 0 0 0 0 0 0 0 -0.000162849 -0.00338511 -9.90438e-05 -0.000422788 -3.98708e-05 -0.000161778 -0.00133128 -9.5078e-05 0 0 0 0 0 0 0 0 0 0 0 0 0 0 0 0 0 0 0 0 0 0 0 0 0 0 0 0 0 0 0 0 -0.000178659 -0.00475039 -0.000104252 -0.000496878 -4.66471e-05 -0.000176748 -0.00121607 -0.000102273 0 0 0 0 0 0 0 0 0 0 0 0 0 0 0 0 0 0 0 0 0 0 0 0 0 0 0 0 0 0 0 0 -0.000197384 -0.00511396 -0.000109358 -0.000591074 -5.3216e-05 -0.000194265 -0.000588851 -0.000109767 0 0 0 0 0 0 0 0 0 0 0 0 0 0 0 0 0 0 0 0 0 0 0 0 0 0 0 0 0 0 0 0 -0.00021978 -3.5068e-06 -0.00011556 -0.000713731 -5.95972e-05 -0.000214937 4.44696e-06 -0.000117644 0 0 0 0 0 0 0 0 0 0 0 0 0 0 0 0 0 0 0 0 0 0 0 0 0 0 0 0 0 0 0 0 -0.000246837 -1.09931e-05 -0.000123655 -0.00088185 -6.58267e-05 -0.000239532 -3.84423e-06 -0.000125968 0 0 0 0 0 0 0 0 0 0 0 0 0 0 0 0 0 0 0 0 0 0 0 0 0 0 0 0 0 0 0 0 -0.000279879 -1.84157e-05 -0.000133538 -0.00111724 -7.19557e-05 -0.000269029 -1.27151e-05 -0.000134795 0 0 0 0 0 0 0 0 0 0 0 0 0 0 0 0 0 0 0 0 0 0 0 0 0 0 0 0 0 0 0 0 -0.000320715 -2.5716e-05 -0.000144362 -0.00143999 -7.80495e-05 -0.000304693 -2.18282e-05 -0.000144223 0 0 0 0 0 0 0 0 0 0 0 0 0 0 0 0 0 0 0 0 0 0 0 0 0 0 0 0 0 0 0 0 -0.000371886 -3.28485e-05 -0.000155449 -0.00186568 -8.41857e-05 -0.000348171 -3.08249e-05 -0.000154468 0 0 0 0 0 0 0 0 0 0 0 0 0 0 0 0 0 0 0 0 0 0 0 0 0 0 0 0 0 0 0 0 -0.00043705 -3.97826e-05 -0.000166948 -0.00236843 -9.04547e-05 -0.000401626 -3.94171e-05 -0.000165916 0 0 0 0 0 0 0 0 0 0 0 0 0 0 0 0 0 0 0 0 0 0 0 0 0 0 0 0 0 0 0 0 -0.000521649 -4.65043e-05 -0.000179799 -0.00271233 -9.696e-05 -0.000467896 -4.74497e-05 -0.000179125 0 0 0 0 0 0 0 0 0 0 0 0 0 0 0 0 0 0 0 0 0 0 0 0 0 0 0 0 0 0 0 0 -0.000634054 -5.30163e-05 -0.000195692 -0.0019203 -0.000103821 -0.000550677 -5.49169e-05 -0.000194771 0 0 0 0 0 0 0 0 0 0 0 0 0 0 0 0 0 0 0 0 0 0 0 0 0 0 0 0 0 0 0 0 -0.00078767 -5.93385e-05 -0.000216401 7.40726e-06 -0.000111175 -0.000654638 -6.19312e-05 -0.000213585 0 0 0 0 0 0 0 0 0 0 0 0 0 0 0 0 0 0 0 0 0 0 0 0 0 0 0 0 0 0 0 0 -0.00100496 -6.55065e-05 -0.000243156 -1.52732e-06 -0.000119185 -0.000785259 -6.86623e-05 -0.000236317 0 0 0 0 0 0 0 0 0 0 0 0 0 0 0 0 0 0 0 0 0 0 0 0 0 0 0 0 0 0 0 0 -0.00132556 -7.15717e-05 -0.000276734 -1.14002e-05 -0.000128044 -0.000947679 -7.52744e-05 -0.000263757 0 0 0 0 0 0 0 0 0 0 0 0 0 0 0 0 0 0 0 0 0 0 0 0 0 0 0 0 0 0 0 0 -0.00182323 -7.75998e-05 -0.00031682 -2.15217e-05 -0.000137983 -0.00114266 -8.1886e-05 -0.000296824 0 0 0 0 0 0 0 0 0 0 0 0 0 0 0 0 0 0 0 0 0 0 0 0 0 0 0 0 0 0 0 0 -0.00264188 -8.36709e-05 -0.000365453 -3.12068e-05 -0.000149281 -0.00135447 -8.8569e-05 -0.000336704 0 0 0 0 0 0 0 0 0 0 0 0 0 0 0 0 0 0 0 0 0 0 0 0 0 0 0 0 0 0 0 0 -0.00406411 -8.98796e-05 -0.000426991 -4.00118e-05 -0.000162277 -0.00151819 -9.53776e-05 -0.000384981 0 0 0 0 0 0 0 0 0 0 0 0 0 0 0 0 0 0 0 0 0 0 0 0 0 0 0 0 0 0 0 0 -0.0065418 -9.63364e-05 -0.000505248 -4.7881e-05 -0.000177386 -0.0014458 -0.000102383 -0.000443742 0 0 0 0 0 0 0 0 0 0 0 0 0 0 0 0 0 0 0 0 0 0 0 0 0 0 0 0 0 0 0 0 -0.00941808 -0.00010317 -0.000606874 -5.51336e-05 -0.000195121 -0.000746639 -0.000109682 -0.000515586 0 0 0 0 0 0 0 0 0 0 0 0 0 0 0 0 0 0 0 0 0 0 0 0 0 0 0 0 0 0 0 0 -3.69581e-06 -0.00011053 -0.000742135 -6.2278e-05 -0.000216124 -3.47431e-06 -0.000117383 -0.000603478 0 0 0 0 0 0 0 0 0 0 0 0 0 0 0 0 0 0 0 0 0 0 0 0 0 0 0 0 0 0 0 0 -1.11907e-05 -0.000118593 -0.000929038 -6.97241e-05 -0.00024121 -1.09905e-05 -0.000125571 -0.000710193 0 0 0 0 0 0 0 0 0 0 0 0 0 0 0 0 0 0 0 0 0 0 0 0 0 0 0 0 0 0 0 0 -1.8608e-05 -0.000127568 -0.00119355 -7.75341e-05 -0.000271427 -1.84319e-05 -0.000134313 -0.000836685 0 0 0 0 0 0 0 0 0 0 0 0 0 0 0 0 0 0 0 0 0 0 0 0 0 0 0 0 0 0 0 0 -2.58924e-05 -0.000137707 -0.00157004 -8.53679e-05 -0.000308145 -2.57442e-05 -0.000143712 -0.000977817 0 0 0 0 0 0 0 0 0 0 0 0 0 0 0 0 0 0 0 0 0 0 0 0 0 0 0 0 0 0 0 0 -3.30027e-05 -0.000149312 -0.00210306 -9.26898e-05 -0.000353176 -3.28871e-05 -0.000153986 -0.00111192 0 0 0 0 0 0 0 0 0 0 0 0 0 0 0 0 0 0 0 0 0 0 0 0 0 0 0 0 0 0 0 0 -3.99121e-05 -0.000162757 -0.00281792 -9.91447e-05 -0.00040894 -3.98344e-05 -0.000165526 -0.00117796 0 0 0 0 0 0 0 0 0 0 0 0 0 0 0 0 0 0 0 0 0 0 0 0 0 0 0 0 0 0 0 0 -4.66096e-05 -0.000178501 -0.00353205 -0.000104885 -0.000478694 -4.65751e-05 -0.000178902 -0.00103795 0 0 0 0 0 0 0 0 0 0 0 0 0 0 0 0 0 0 0 0 0 0 0 0 0 0 0 0 0 0 0 0 -5.30998e-05 -0.000197125 -0.00299228 -0.000110616 -0.000566814 -5.31143e-05 -0.000194811 -0.000476639 0 0 0 0 0 0 0 0 0 0 0 0 0 0 0 0 0 0 0 0 0 0 0 0 0 0 0 0 0 0 0 0 -5.94026e-05 -0.000219371 1.04625e-05 -0.000117267 -0.000679105 -5.94729e-05 -0.000214013 2.90627e-06 0 0 0 0 0 0 0 0 0 0 0 0 0 0 0 0 0 0 0 0 0 0 0 0 0 0 0 0 0 0 0 0 -6.55534e-05 -0.000246207 1.21497e-06 -0.000125458 -0.000822944 -6.56871e-05 -0.000237295 -5.05498e-06 0 0 0 0 0 0 0 0 0 0 0 0 0 0 0 0 0 0 0 0 0 0 0 0 0 0 0 0 0 0 0 0 -9.62975e-05 -0.000516221 -4.54889e-05 -0.000179963 -0.00174471 -9.68144e-05 -0.000453715 -4.63985e-05 0 0 0 0 0 0 0 0 0 0 0 0 0 0 0 0 0 0 0 0 0 0 0 0 0 0 0 0 0 0 0 0 -0.000103116 -0.000625131 -5.27736e-05 -0.000195358 -0.000975122 -0.000103676 -0.00053051 -5.37185e-05 0 0 0 0 0 0 0 0 0 0 0 0 0 0 0 0 0 0 0 0 0 0 0 0 0 0 0 0 0 0 0 0 -0.000110466 -0.000772295 -6.07907e-05 -0.000215456 -3.63998e-06 -0.000111026 -0.000625816 -6.06624e-05 0 0 0 0 0 0 0 0 0 0 0 0 0 0 0 0 0 0 0 0 0 0 0 0 0 0 0 0 0 0 0 0 -0.000118527 -0.000976856 -7.01278e-05 -0.000241424 -1.11482e-05 -0.000119023 -0.000743676 -6.73516e-05 0 0 0 0 0 0 0 0 0 0 0 0 0 0 0 0 0 0 0 0 0 0 0 0 0 0 0 0 0 0 0 0 -0.000127511 -0.00127041 -8.04926e-05 -0.000273993 -1.85772e-05 -0.000127856 -0.00088691 -7.39232e-05 0 0 0 0 0 0 0 0 0 0 0 0 0 0 0 0 0 0 0 0 0 0 0 0 0 0 0 0 0 0 0 0 -0.000137673 -0.001706 -9.06767e-05 -0.000313323 -2.58737e-05 -0.000137751 -0.00105284 -8.04993e-05 0 0 0 0 0 0 0 0 0 0 0 0 0 0 0 0 0 0 0 0 0 0 0 0 0 0 0 0 0 0 0 0 -0.000149318 -0.00237075 -9.91084e-05 -0.000360861 -3.29981e-05 -0.000148976 -0.00122186 -8.71754e-05 0 0 0 0 0 0 0 0 0 0 0 0 0 0 0 0 0 0 0 0 0 0 0 0 0 0 0 0 0 0 0 0 -0.000162824 -0.00338507 -0.000104774 -0.000419745 -3.99257e-05 -0.00016186 -0.00132985 -9.40264e-05 0 0 0 0 0 0 0 0 0 0 0 0 0 0 0 0 0 0 0 0 0 0 0 0 0 0 0 0 0 0 0 0 -0.000178654 -0.00475036 -0.00010801 -0.000494317 -4.66468e-05 -0.000176801 -0.00121485 -0.00010112 0 0 0 0 0 0 0 0 0 0 0 0 0 0 0 0 0 0 0 0 0 0 0 0 0 0 0 0 0 0 0 0 -0.000197399 -0.00511394 -0.000110621 -0.000591048 -5.31671e-05 -0.000194288 -0.00058772 -0.000108523 0 0 0 0 0 0 0 0 0 0 0 0 0 0 0 0 0 0 0 0 0 0 0 0 0 0 0 0 0 0 0 0 -0.000219814 -3.22833e-06 -0.000115013 -0.000719018 -5.95076e-05 -0.000214933 6.48797e-06 -0.000116306 0 0 0 0 0 0 0 0 0 0 0 0 0 0 0 0 0 0 0 0 0 0 0 0 0 0 0 0 0 0 0 0 -0.000246886 -1.07384e-05 -0.000122676 -0.000891662 -6.57042e-05 -0.000239502 -2.05304e-06 -0.000124542 0 0 0 0 0 0 0 0 0 0 0 0 0 0 0 0 0 0 0 0 0 0 0 0 0 0 0 0 0 0 0 0 -0.000279941 -1.82043e-05 -0.000132965 -0.001127 -7.1807e-05 -0.000268975 -1.13794e-05 -0.000133324 0 0 0 0 0 0 0 0 0 0 0 0 0 0 0 0 0 0 0 0 0 0 0 0 0 0 0 0 0 0 0 0 -0.000320789 -2.55601e-05 -0.000144056 -0.00144679 -7.78794e-05 -0.000304617 -2.10373e-05 -0.0001428 0 0 0 0 0 0 0 0 0 0 0 0 0 0 0 0 0 0 0 0 0 0 0 0 0 0 0 0 0 0 0 0 -0.000371968 -3.27519e-05 -0.00015522 -0.00186972 -8.39979e-05 -0.000348076 -3.05445e-05 -0.000153221 0 0 0 0 0 0 0 0 0 0 0 0 0 0 0 0 0 0 0 0 0 0 0 0 0 0 0 0 0 0 0 0 -0.000437139 -3.97419e-05 -0.000167379 -0.0023707 -9.02521e-05 -0.000401512 -3.95243e-05 -0.000164963 0 0 0 0 0 0 0 0 0 0 0 0 0 0 0 0 0 0 0 0 0 0 0 0 0 0 0 0 0 0 0 0 -0.000521742 -4.65111e-05 -0.000181287 -0.00271359 -9.67457e-05 -0.000467766 -4.77955e-05 -0.000178525 0 0 0 0 0 0 0 0 0 0 0 0 0 0 0 0 0 0 0 0 0 0 0 0 0 0 0 0 0 0 0 0 -0.000634149 -5.30603e-05 -0.00019809 -0.00192111 -0.000103599 -0.000550532 -5.53892e-05 -0.000194501 0 0 0 0 0 0 0 0 0 0 0 0 0 0 0 0 0 0 0 0 0 0 0 0 0 0 0 0 0 0 0 0 -0.000787764 -5.94097e-05 -0.000219677 4.20683e-06 -0.000110952 -0.000654483 -6.24926e-05 -0.000213553 0 0 0 0 0 0 0 0 0 0 0 0 0 0 0 0 0 0 0 0 0 0 0 0 0 0 0 0 0 0 0 0 -0.00100505 -6.55973e-05 -0.000247002 -4.29222e-06 -0.000118967 -0.000785098 -6.93466e-05 -0.000236404 0 0 0 0 0 0 0 0 0 0 0 0 0 0 0 0 0 0 0 0 0 0 0 0 0 0 0 0 0 0 0 0 -0.00132564 -7.16771e-05 -0.000281708 -1.34335e-05 -0.00012784 -0.00094752 -7.61454e-05 -0.000263872 0 0 0 0 0 0 0 0 0 0 0 0 0 0 0 0 0 0 0 0 0 0 0 0 0 0 0 0 0 0 0 0 -0.0018233 -7.7717e-05 -0.000319672 -2.27557e-05 -0.000137802 -0.00114251 -8.29825e-05 -0.000296941 0 0 0 0 0 0 0 0 0 0 0 0 0 0 0 0 0 0 0 0 0 0 0 0 0 0 0 0 0 0 0 0 -0.00264194 -8.37987e-05 -0.000367626 -3.17957e-05 -0.00014913 -0.00135433 -8.98694e-05 -0.000336861 0 0 0 0 0 0 0 0 0 0 0 0 0 0 0 0 0 0 0 0 0 0 0 0 0 0 0 0 0 0 0 0 -0.00406415 -9.0017e-05 -0.00043413 -4.02287e-05 -0.000162161 -0.00151809 -9.68085e-05 -0.000385259 0 0 0 0 0 0 0 0 0 0 0 0 0 0 0 0 0 0 0 0 0 0 0 0 0 0 0 0 0 0 0 0 -0.00654183 -9.6482e-05 -0.000517131 -4.79559e-05 -0.000177308 -0.00144572 -0.000103866 -0.000444218 0 0 0 0 0 0 0 0 0 0 0 0 0 0 0 0 0 0 0 0 0 0 0 0 0 0 0 0 0 0 0 0 -0.00941809 -0.000103321 -0.000616485 -5.51048e-05 -0.000195081 -0.000746568 -0.000111188 -0.000516312 0 0 0 0 0 0 0 0 0 0 0 0 0 0 0 0 0 0 0 0 0 0 0 0 0 0 0 0 0 0 0 0 -3.76012e-06 -0.000110682 -0.000739784 -6.19389e-05 -0.000216121 -3.08731e-06 -0.000118944 -0.00060447 0 0 0 0 0 0 0 0 0 0 0 0 0 0 0 0 0 0 0 0 0 0 0 0 0 0 0 0 0 0 0 0 -1.1244e-05 -0.000118739 -0.000913226 -6.87165e-05 -0.00024124 -1.06321e-05 -0.00012724 -0.000711429 0 0 0 0 0 0 0 0 0 0 0 0 0 0 0 0 0 0 0 0 0 0 0 0 0 0 0 0 0 0 0 0 -1.86462e-05 -0.0001277 -0.00117496 -7.55625e-05 -0.000271488 -1.81266e-05 -0.000136092 -0.000838116 0 0 0 0 0 0 0 0 0 0 0 0 0 0 0 0 0 0 0 0 0 0 0 0 0 0 0 0 0 0 0 0 -2.59132e-05 -0.000137815 -0.00155768 -8.24274e-05 -0.000308234 -2.55098e-05 -0.000145494 -0.000979364 0 0 0 0 0 0 0 0 0 0 0 0 0 0 0 0 0 0 0 0 0 0 0 0 0 0 0 0 0 0 0 0 -3.30051e-05 -0.000149389 -0.00209691 -8.91638e-05 -0.000353291 -3.27331e-05 -0.000155571 -0.00111348 0 0 0 0 0 0 0 0 0 0 0 0 0 0 0 0 0 0 0 0 0 0 0 0 0 0 0 0 0 0 0 0 -3.98969e-05 -0.000162797 -0.00281512 -9.56826e-05 -0.000409079 -3.9762e-05 -0.000166705 -0.00117943 0 0 0 0 0 0 0 0 0 0 0 0 0 0 0 0 0 0 0 0 0 0 0 0 0 0 0 0 0 0 0 0 -4.65787e-05 -0.000178502 -0.00353077 -0.000102091 -0.000478854 -4.6579e-05 -0.000179555 -0.00103927 0 0 0 0 0 0 0 0 0 0 0 0 0 0 0 0 0 0 0 0 0 0 0 0 0 0 0 0 0 0 0 0 -5.30556e-05 -0.000197089 -0.0029916 -0.000108713 -0.000566991 -5.31846e-05 -0.000194968 -0.000477925 0 0 0 0 0 0 0 0 0 0 0 0 0 0 0 0 0 0 0 0 0 0 0 0 0 0 0 0 0 0 0 0 -5.93481e-05 -0.000219303 1.44709e-05 -0.000115954 -0.000679296 -5.9598e-05 -0.000213844 1.2124e-06 0 0 0 0 0 0 0 0 0 0 0 0 0 0 0 0 0 0 0 0 0 0 0 0 0 0 0 0 0 0 0 0 -6.54913e-05 -0.000246112 4.86347e-06 -0.000124103 -0.000823142 -6.58556e-05 -0.000237019 -6.59425e-06 0 0 0 0 0 0 0 0 0 0 0 0 0 0 0 0 0 0 0 0 0 0 0 0 0 0 0 0 0 0 0 0 -7.15347e-05 -0.000278804 -6.02295e-06 -0.000133204 -0.00100682 -7.201e-05 -0.000265283 -1.46611e-05 0 0 0 0 0 0 0 0 0 0 0 0 0 0 0 0 0 0 0 0 0 0 0 0 0 0 0 0 0 0 0 0 -7.75428e-05 -0.000319129 -1.699e-05 -0.000143133 -0.0012361 -7.81274e-05 -0.00029951 -2.28219e-05 0 0 0 0 0 0 0 0 0 0 0 0 0 0 0 0 0 0 0 0 0 0 0 0 0 0 0 0 0 0 0 0 -8.35945e-05 -0.000369524 -2.69273e-05 -0.000153855 -0.001502 -8.42861e-05 -0.000340903 -3.08977e-05 0 0 0 0 0 0 0 0 0 0 0 0 0 0 0 0 0 0 0 0 0 0 0 0 0 0 0 0 0 0 0 0 -8.97845e-05 -0.000433466 -3.53384e-05 -0.000165673 -0.00174309 -9.05758e-05 -0.000391228 -3.87366e-05 0 0 0 0 0 0 0 0 0 0 0 0 0 0 0 0 0 0 0 0 0 0 0 0 0 0 0 0 0 0 0 0 -0.000127457 -0.00127025 -8.43878e-05 -0.000273733 -1.87037e-05 -0.000128121 -0.000885022 -7.33242e-05 0 0 0 0 0 0 0 0 0 0 0 0 0 0 0 0 0 0 0 0 0 0 0 0 0 0 0 0 0 0 0 0 -0.000137628 -0.00170586 -9.72549e-05 -0.000312527 -2.59721e-05 -0.000137984 -0.00105095 -7.97949e-05 0 0 0 0 0 0 0 0 0 0 0 0 0 0 0 0 0 0 0 0 0 0 0 0 0 0 0 0 0 0 0 0 -0.000149285 -0.00237064 -0.000106903 -0.000360222 -3.30642e-05 -0.00014917 -0.00122008 -8.63499e-05 0 0 0 0 0 0 0 0 0 0 0 0 0 0 0 0 0 0 0 0 0 0 0 0 0 0 0 0 0 0 0 0 -0.000162803 -0.00338498 -0.000111582 -0.000419738 -3.9958e-05 -0.000162007 -0.00132829 -9.30733e-05 0 0 0 0 0 0 0 0 0 0 0 0 0 0 0 0 0 0 0 0 0 0 0 0 0 0 0 0 0 0 0 0 -0.000178647 -0.00475031 -0.00011184 -0.00049542 -4.66465e-05 -0.000176898 -0.00121354 -0.00010004 0 0 0 0 0 0 0 0 0 0 0 0 0 0 0 0 0 0 0 0 0 0 0 0 0 0 0 0 0 0 0 0 -0.000197404 -0.00511391 -0.000110645 -0.000593541 -5.31374e-05 -0.000194337 -0.000586511 -0.000107322 0 0 0 0 0 0 0 0 0 0 0 0 0 0 0 0 0 0 0 0 0 0 0 0 0 0 0 0 0 0 0 0 -0.000219829 -2.78219e-06 -0.000111873 -0.000722968 -5.94527e-05 -0.000214935 8.31368e-06 -0.000114996 0 0 0 0 0 0 0 0 0 0 0 0 0 0 0 0 0 0 0 0 0 0 0 0 0 0 0 0 0 0 0 0 -0.000246912 -1.03372e-05 -0.000116986 -0.000896366 -6.56286e-05 -0.000239462 -4.56209e-07 -0.000123152 0 0 0 0 0 0 0 0 0 0 0 0 0 0 0 0 0 0 0 0 0 0 0 0 0 0 0 0 0 0 0 0 -0.000279976 -1.78826e-05 -0.000124056 -0.0011313 -7.17146e-05 -0.000268898 -1.01974e-05 -0.000131913 0 0 0 0 0 0 0 0 0 0 0 0 0 0 0 0 0 0 0 0 0 0 0 0 0 0 0 0 0 0 0 0 -0.00032083 -2.53373e-05 -0.000130538 -0.00145008 -7.77735e-05 -0.000304507 -2.03421e-05 -0.000141462 0 0 0 0 0 0 0 0 0 0 0 0 0 0 0 0 0 0 0 0 0 0 0 0 0 0 0 0 0 0 0 0 -0.000372015 -3.26308e-05 -0.000140795 -0.00187203 -8.38813e-05 -0.000347934 -3.02898e-05 -0.00015206 0 0 0 0 0 0 0 0 0 0 0 0 0 0 0 0 0 0 0 0 0 0 0 0 0 0 0 0 0 0 0 0 -0.00043719 -3.97119e-05 -0.000159909 -0.00237223 -9.01269e-05 -0.000401341 -3.9584e-05 -0.000164066 0 0 0 0 0 0 0 0 0 0 0 0 0 0 0 0 0 0 0 0 0 0 0 0 0 0 0 0 0 0 0 0 -0.000521796 -4.65538e-05 -0.000185121 -0.00271454 -9.66145e-05 -0.000467568 -4.80306e-05 -0.000177931 0 0 0 0 0 0 0 0 0 0 0 0 0 0 0 0 0 0 0 0 0 0 0 0 0 0 0 0 0 0 0 0 -0.000634204 -5.31554e-05 -0.000212461 -0.00192175 -0.000103464 -0.000550309 -5.57138e-05 -0.000194192 0 0 0 0 0 0 0 0 0 0 0 0 0 0 0 0 0 0 0 0 0 0 0 0 0 0 0 0 0 0 0 0 -0.000787818 -5.95405e-05 -0.000236938 1.63566e-06 -0.000110817 -0.000654239 -6.29088e-05 -0.000213464 0 0 0 0 0 0 0 0 0 0 0 0 0 0 0 0 0 0 0 0 0 0 0 0 0 0 0 0 0 0 0 0 -0.0010051 -6.57529e-05 -0.000263173 -6.50931e-06 -0.000118837 -0.000784841 -6.99306e-05 -0.000236452 0 0 0 0 0 0 0 0 0 0 0 0 0 0 0 0 0 0 0 0 0 0 0 0 0 0 0 0 0 0 0 0 -0.00132569 -7.1852e-05 -0.000291231 -1.50419e-05 -0.000127719 -0.000947261 -7.69882e-05 -0.000263993 0 0 0 0 0 0 0 0 0 0 0 0 0 0 0 0 0 0 0 0 0 0 0 0 0 0 0 0 0 0 0 0 -0.00182334 -7.79098e-05 -0.00031856 -2.36708e-05 -0.000137694 -0.00114226 -8.41191e-05 -0.000297107 0 0 0 0 0 0 0 0 0 0 0 0 0 0 0 0 0 0 0 0 0 0 0 0 0 0 0 0 0 0 0 0 -0.00264197 -8.4009e-05 -0.000364923 -3.21035e-05 -0.000149039 -0.00135411 -9.12392e-05 -0.000337089 0 0 0 0 0 0 0 0 0 0 0 0 0 0 0 0 0 0 0 0 0 0 0 0 0 0 0 0 0 0 0 0 -0.00406417 -9.02442e-05 -0.000460504 -4.01231e-05 -0.00016209 -0.0015179 -9.82763e-05 -0.000385593 0 0 0 0 0 0 0 0 0 0 0 0 0 0 0 0 0 0 0 0 0 0 0 0 0 0 0 0 0 0 0 0 -0.00654184 -9.67239e-05 -0.000571156 -4.76362e-05 -0.000177259 -0.00144557 -0.000105297 -0.000444712 0 0 0 0 0 0 0 0 0 0 0 0 0 0 0 0 0 0 0 0 0 0 0 0 0 0 0 0 0 0 0 0 -0.0094181 -0.000103574 -0.000674239 -5.46781e-05 -0.000195054 -0.000746444 -0.000112532 -0.00051701 0 0 0 0 0 0 0 0 0 0 0 0 0 0 0 0 0 0 0 0 0 0 0 0 0 0 0 0 0 0 0 0 -3.79129e-06 -0.00011094 -0.000758707 -6.13741e-05 -0.000216116 -2.4829e-06 -0.000120264 -0.000605394 0 0 0 0 0 0 0 0 0 0 0 0 0 0 0 0 0 0 0 0 0 0 0 0 0 0 0 0 0 0 0 0 -1.12675e-05 -0.000118992 -0.000876726 -6.78766e-05 -0.000241256 -1.00757e-05 -0.000128659 -0.000712576 0 0 0 0 0 0 0 0 0 0 0 0 0 0 0 0 0 0 0 0 0 0 0 0 0 0 0 0 0 0 0 0 -1.86603e-05 -0.000127935 -0.00111459 -7.43053e-05 -0.000271523 -1.7659e-05 -0.000137679 -0.000839453 0 0 0 0 0 0 0 0 0 0 0 0 0 0 0 0 0 0 0 0 0 0 0 0 0 0 0 0 0 0 0 0 -2.59166e-05 -0.000138015 -0.00151479 -8.07204e-05 -0.000308288 -2.51592e-05 -0.000147175 -0.00098082 0 0 0 0 0 0 0 0 0 0 0 0 0 0 0 0 0 0 0 0 0 0 0 0 0 0 0 0 0 0 0 0 -3.29976e-05 -0.000149536 -0.00207768 -8.71425e-05 -0.000353361 -3.25122e-05 -0.000157129 -0.00111495 0 0 0 0 0 0 0 0 0 0 0 0 0 0 0 0 0 0 0 0 0 0 0 0 0 0 0 0 0 0 0 0 -3.98788e-05 -0.000162879 -0.00280825 -9.3605e-05 -0.000409163 -3.96692e-05 -0.000167875 -0.00118082 0 0 0 0 0 0 0 0 0 0 0 0 0 0 0 0 0 0 0 0 0 0 0 0 0 0 0 0 0 0 0 0 -4.65511e-05 -0.000178516 -0.00352841 -0.000100204 -0.000478951 -4.66019e-05 -0.000180169 -0.00104053 0 0 0 0 0 0 0 0 0 0 0 0 0 0 0 0 0 0 0 0 0 0 0 0 0 0 0 0 0 0 0 0 -5.30199e-05 -0.000197038 -0.00299059 -0.000107108 -0.000567099 -5.33046e-05 -0.000195054 -0.000479152 0 0 0 0 0 0 0 0 0 0 0 0 0 0 0 0 0 0 0 0 0 0 0 0 0 0 0 0 0 0 0 0 -5.93059e-05 -0.000219197 1.77226e-05 -0.000114518 -0.00067941 -5.97952e-05 -0.00021362 -3.29726e-07 0 0 0 0 0 0 0 0 0 0 0 0 0 0 0 0 0 0 0 0 0 0 0 0 0 0 0 0 0 0 0 0 -6.54441e-05 -0.000245963 7.88434e-06 -0.000122604 -0.000823258 -6.61125e-05 -0.000236774 -8.02283e-06 0 0 0 0 0 0 0 0 0 0 0 0 0 0 0 0 0 0 0 0 0 0 0 0 0 0 0 0 0 0 0 0 -7.14841e-05 -0.000278622 -3.32902e-06 -0.000131485 -0.00100693 -7.23137e-05 -0.000265223 -1.58464e-05 0 0 0 0 0 0 0 0 0 0 0 0 0 0 0 0 0 0 0 0 0 0 0 0 0 0 0 0 0 0 0 0 -7.749e-05 -0.000318921 -1.45249e-05 -0.000141268 -0.0012362 -7.84697e-05 -0.000299634 -2.36861e-05 0 0 0 0 0 0 0 0 0 0 0 0 0 0 0 0 0 0 0 0 0 0 0 0 0 0 0 0 0 0 0 0 -8.35406e-05 -0.000369293 -2.44412e-05 -0.000152154 -0.0015021 -8.46625e-05 -0.000341023 -3.14229e-05 0 0 0 0 0 0 0 0 0 0 0 0 0 0 0 0 0 0 0 0 0 0 0 0 0 0 0 0 0 0 0 0 -8.97304e-05 -0.000433213 -3.2597e-05 -0.000164522 -0.00174316 -9.09833e-05 -0.00039108 -3.89558e-05 0 0 0 0 0 0 0 0 0 0 0 0 0 0 0 0 0 0 0 0 0 0 0 0 0 0 0 0 0 0 0 0 -9.61711e-05 -0.000515777 -3.9696e-05 -0.000178962 -0.00174486 -9.75324e-05 -0.000452347 -4.62206e-05 0 0 0 0 0 0 0 0 0 0 0 0 0 0 0 0 0 0 0 0 0 0 0 0 0 0 0 0 0 0 0 0 -0.000102993 -0.000624667 -4.7469e-05 -0.000196239 -0.000975243 -0.000104422 -0.000528203 -5.31986e-05 0 0 0 0 0 0 0 0 0 0 0 0 0 0 0 0 0 0 0 0 0 0 0 0 0 0 0 0 0 0 0 0 -0.00011035 -0.000771824 -5.78356e-05 -0.000217226 -3.87869e-06 -0.000111782 -0.000622689 -5.99159e-05 0 0 0 0 0 0 0 0 0 0 0 0 0 0 0 0 0 0 0 0 0 0 0 0 0 0 0 0 0 0 0 0 -0.00011842 -0.000976396 -7.16582e-05 -0.000242877 -1.13693e-05 -0.000119763 -0.000740011 -6.64339e-05 0 0 0 0 0 0 0 0 0 0 0 0 0 0