# vtk DataFile Version 2.0
Velocidad
ASCII

DATASET STRUCTURED_GRID
DIMENSIONS   40   40   30

POINTS   48000   double
0.0125   0.0125   0.0166667
0.0375   0.0125   0.0166667
0.0625   0.0125   0.0166667
0.0875   0.0125   0.0166667
0.1125   0.0125   0.0166667
0.1375   0.0125   0.0166667
0.1625   0.0125   0.0166667
0.1875   0.0125   0.0166667
0.2125   0.0125   0.0166667
0.2375   0.0125   0.0166667
0.2625   0.0125   0.0166667
0.2875   0.0125   0.0166667
0.3125   0.0125   0.0166667
0.3375   0.0125   0.0166667
0.3625   0.0125   0.0166667
0.3875   0.0125   0.0166667
0.4125   0.0125   0.0166667
0.4375   0.0125   0.0166667
0.4625   0.0125   0.0166667
0.4875   0.0125   0.0166667
0.5125   0.0125   0.0166667
0.5375   0.0125   0.0166667
0.5625   0.0125   0.0166667
0.5875   0.0125   0.0166667
0.6125   0.0125   0.0166667
0.6375   0.0125   0.0166667
0.6625   0.0125   0.0166667
0.6875   0.0125   0.0166667
0.7125   0.0125   0.0166667
0.7375   0.0125   0.0166667
0.7625   0.0125   0.0166667
0.7875   0.0125   0.0166667
0.8125   0.0125   0.0166667
0.8375   0.0125   0.0166667
0.8625   0.0125   0.0166667
0.8875   0.0125   0.0166667
0.9125   0.0125   0.0166667
0.9375   0.0125   0.0166667
0.9625   0.0125   0.0166667
0.9875   0.0125   0.0166667
0.0125   0.0375   0.0166667
0.0375   0.0375   0.0166667
0.0625   0.0375   0.0166667
0.0875   0.0375   0.0166667
0.1125   0.0375   0.0166667
0.1375   0.0375   0.0166667
0.1625   0.0375   0.0166667
0.1875   0.0375   0.0166667
0.2125   0.0375   0.0166667
0.2375   0.0375   0.0166667
0.2625   0.0375   0.0166667
0.2875   0.0375   0.0166667
0.3125   0.0375   0.0166667
0.3375   0.0375   0.0166667
0.3625   0.0375   0.0166667
0.3875   0.0375   0.0166667
0.4125   0.0375   0.0166667
0.4375   0.0375   0.0166667
0.4625   0.0375   0.0166667
0.4875   0.0375   0.0166667
0.5125   0.0375   0.0166667
0.5375   0.0375   0.0166667
0.5625   0.0375   0.0166667
0.5875   0.0375   0.0166667
0.6125   0.0375   0.0166667
0.6375   0.0375   0.0166667
0.6625   0.0375   0.0166667
0.6875   0.0375   0.0166667
0.7125   0.0375   0.0166667
0.7375   0.0375   0.0166667
0.7625   0.0375   0.0166667
0.7875   0.0375   0.0166667
0.8125   0.0375   0.0166667
0.8375   0.0375   0.0166667
0.8625   0.0375   0.0166667
0.8875   0.0375   0.0166667
0.9125   0.0375   0.0166667
0.9375   0.0375   0.0166667
0.9625   0.0375   0.0166667
0.9875   0.0375   0.0166667
0.0125   0.0625   0.0166667
0.0375   0.0625   0.0166667
0.0625   0.0625   0.0166667
0.0875   0.0625   0.0166667
0.1125   0.0625   0.0166667
0.1375   0.0625   0.0166667
0.1625   0.0625   0.0166667
0.1875   0.0625   0.0166667
0.2125   0.0625   0.0166667
0.2375   0.0625   0.0166667
0.2625   0.0625   0.0166667
0.2875   0.0625   0.0166667
0.3125   0.0625   0.0166667
0.3375   0.0625   0.0166667
0.3625   0.0625   0.0166667
0.3875   0.0625   0.0166667
0.4125   0.0625   0.0166667
0.4375   0.0625   0.0166667
0.4625   0.0625   0.0166667
0.4875   0.0625   0.0166667
0.5125   0.0625   0.0166667
0.5375   0.0625   0.0166667
0.5625   0.0625   0.0166667
0.5875   0.0625   0.0166667
0.6125   0.0625   0.0166667
0.6375   0.0625   0.0166667
0.6625   0.0625   0.0166667
0.6875   0.0625   0.0166667
0.7125   0.0625   0.0166667
0.7375   0.0625   0.0166667
0.7625   0.0625   0.0166667
0.7875   0.0625   0.0166667
0.8125   0.0625   0.0166667
0.8375   0.0625   0.0166667
0.8625   0.0625   0.0166667
0.8875   0.0625   0.0166667
0.9125   0.0625   0.0166667
0.9375   0.0625   0.0166667
0.9625   0.0625   0.0166667
0.9875   0.0625   0.0166667
0.0125   0.0875   0.0166667
0.0375   0.0875   0.0166667
0.0625   0.0875   0.0166667
0.0875   0.0875   0.0166667
0.1125   0.0875   0.0166667
0.1375   0.0875   0.0166667
0.1625   0.0875   0.0166667
0.1875   0.0875   0.0166667
0.2125   0.0875   0.0166667
0.2375   0.0875   0.0166667
0.2625   0.0875   0.0166667
0.2875   0.0875   0.0166667
0.3125   0.0875   0.0166667
0.3375   0.0875   0.0166667
0.3625   0.0875   0.0166667
0.3875   0.0875   0.0166667
0.4125   0.0875   0.0166667
0.4375   0.0875   0.0166667
0.4625   0.0875   0.0166667
0.4875   0.0875   0.0166667
0.5125   0.0875   0.0166667
0.5375   0.0875   0.0166667
0.5625   0.0875   0.0166667
0.5875   0.0875   0.0166667
0.6125   0.0875   0.0166667
0.6375   0.0875   0.0166667
0.6625   0.0875   0.0166667
0.6875   0.0875   0.0166667
0.7125   0.0875   0.0166667
0.7375   0.0875   0.0166667
0.7625   0.0875   0.0166667
0.7875   0.0875   0.0166667
0.8125   0.0875   0.0166667
0.8375   0.0875   0.0166667
0.8625   0.0875   0.0166667
0.8875   0.0875   0.0166667
0.9125   0.0875   0.0166667
0.9375   0.0875   0.0166667
0.9625   0.0875   0.0166667
0.9875   0.0875   0.0166667
0.0125   0.1125   0.0166667
0.0375   0.1125   0.0166667
0.0625   0.1125   0.0166667
0.0875   0.1125   0.0166667
0.1125   0.1125   0.0166667
0.1375   0.1125   0.0166667
0.1625   0.1125   0.0166667
0.1875   0.1125   0.0166667
0.2125   0.1125   0.0166667
0.2375   0.1125   0.0166667
0.2625   0.1125   0.0166667
0.2875   0.1125   0.0166667
0.3125   0.1125   0.0166667
0.3375   0.1125   0.0166667
0.3625   0.1125   0.0166667
0.3875   0.1125   0.0166667
0.4125   0.1125   0.0166667
0.4375   0.1125   0.0166667
0.4625   0.1125   0.0166667
0.4875   0.1125   0.0166667
0.5125   0.1125   0.0166667
0.5375   0.1125   0.0166667
0.5625   0.1125   0.0166667
0.5875   0.1125   0.0166667
0.6125   0.1125   0.0166667
0.6375   0.1125   0.0166667
0.6625   0.1125   0.0166667
0.6875   0.1125   0.0166667
0.7125   0.1125   0.0166667
0.7375   0.1125   0.0166667
0.7625   0.1125   0.0166667
0.7875   0.1125   0.0166667
0.8125   0.1125   0.0166667
0.8375   0.1125   0.0166667
0.8625   0.1125   0.0166667
0.8875   0.1125   0.0166667
0.9125   0.1125   0.0166667
0.9375   0.1125   0.0166667
0.9625   0.1125   0.0166667
0.9875   0.1125   0.0166667
0.0125   0.1375   0.0166667
0.0375   0.1375   0.0166667
0.0625   0.1375   0.0166667
0.0875   0.1375   0.0166667
0.1125   0.1375   0.0166667
0.1375   0.1375   0.0166667
0.1625   0.1375   0.0166667
0.1875   0.1375   0.0166667
0.2125   0.1375   0.0166667
0.2375   0.1375   0.0166667
0.2625   0.1375   0.0166667
0.2875   0.1375   0.0166667
0.3125   0.1375   0.0166667
0.3375   0.1375   0.0166667
0.3625   0.1375   0.0166667
0.3875   0.1375   0.0166667
0.4125   0.1375   0.0166667
0.4375   0.1375   0.0166667
0.4625   0.1375   0.0166667
0.4875   0.1375   0.0166667
0.5125   0.1375   0.0166667
0.5375   0.1375   0.0166667
0.5625   0.1375   0.0166667
0.5875   0.1375   0.0166667
0.6125   0.1375   0.0166667
0.6375   0.1375   0.0166667
0.6625   0.1375   0.0166667
0.6875   0.1375   0.0166667
0.7125   0.1375   0.0166667
0.7375   0.1375   0.0166667
0.7625   0.1375   0.0166667
0.7875   0.1375   0.0166667
0.8125   0.1375   0.0166667
0.8375   0.1375   0.0166667
0.8625   0.1375   0.0166667
0.8875   0.1375   0.0166667
0.9125   0.1375   0.0166667
0.9375   0.1375   0.0166667
0.9625   0.1375   0.0166667
0.9875   0.1375   0.0166667
0.0125   0.1625   0.0166667
0.0375   0.1625   0.0166667
0.0625   0.1625   0.0166667
0.0875   0.1625   0.0166667
0.1125   0.1625   0.0166667
0.1375   0.1625   0.0166667
0.1625   0.1625   0.0166667
0.1875   0.1625   0.0166667
0.2125   0.1625   0.0166667
0.2375   0.1625   0.0166667
0.2625   0.1625   0.0166667
0.2875   0.1625   0.0166667
0.3125   0.1625   0.0166667
0.3375   0.1625   0.0166667
0.3625   0.1625   0.0166667
0.3875   0.1625   0.0166667
0.4125   0.1625   0.0166667
0.4375   0.1625   0.0166667
0.4625   0.1625   0.0166667
0.4875   0.1625   0.0166667
0.5125   0.1625   0.0166667
0.5375   0.1625   0.0166667
0.5625   0.1625   0.0166667
0.5875   0.1625   0.0166667
0.6125   0.1625   0.0166667
0.6375   0.1625   0.0166667
0.6625   0.1625   0.0166667
0.6875   0.1625   0.0166667
0.7125   0.1625   0.0166667
0.7375   0.1625   0.0166667
0.7625   0.1625   0.0166667
0.7875   0.1625   0.0166667
0.8125   0.1625   0.0166667
0.8375   0.1625   0.0166667
0.8625   0.1625   0.0166667
0.8875   0.1625   0.0166667
0.9125   0.1625   0.0166667
0.9375   0.1625   0.0166667
0.9625   0.1625   0.0166667
0.9875   0.1625   0.0166667
0.0125   0.1875   0.0166667
0.0375   0.1875   0.0166667
0.0625   0.1875   0.0166667
0.0875   0.1875   0.0166667
0.1125   0.1875   0.0166667
0.1375   0.1875   0.0166667
0.1625   0.1875   0.0166667
0.1875   0.1875   0.0166667
0.2125   0.1875   0.0166667
0.2375   0.1875   0.0166667
0.2625   0.1875   0.0166667
0.2875   0.1875   0.0166667
0.3125   0.1875   0.0166667
0.3375   0.1875   0.0166667
0.3625   0.1875   0.0166667
0.3875   0.1875   0.0166667
0.4125   0.1875   0.0166667
0.4375   0.1875   0.0166667
0.4625   0.1875   0.0166667
0.4875   0.1875   0.0166667
0.5125   0.1875   0.0166667
0.5375   0.1875   0.0166667
0.5625   0.1875   0.0166667
0.5875   0.1875   0.0166667
0.6125   0.1875   0.0166667
0.6375   0.1875   0.0166667
0.6625   0.1875   0.0166667
0.6875   0.1875   0.0166667
0.7125   0.1875   0.0166667
0.7375   0.1875   0.0166667
0.7625   0.1875   0.0166667
0.7875   0.1875   0.0166667
0.8125   0.1875   0.0166667
0.8375   0.1875   0.0166667
0.8625   0.1875   0.0166667
0.8875   0.1875   0.0166667
0.9125   0.1875   0.0166667
0.9375   0.1875   0.0166667
0.9625   0.1875   0.0166667
0.9875   0.1875   0.0166667
0.0125   0.2125   0.0166667
0.0375   0.2125   0.0166667
0.0625   0.2125   0.0166667
0.0875   0.2125   0.0166667
0.1125   0.2125   0.0166667
0.1375   0.2125   0.0166667
0.1625   0.2125   0.0166667
0.1875   0.2125   0.0166667
0.2125   0.2125   0.0166667
0.2375   0.2125   0.0166667
0.2625   0.2125   0.0166667
0.2875   0.2125   0.0166667
0.3125   0.2125   0.0166667
0.3375   0.2125   0.0166667
0.3625   0.2125   0.0166667
0.3875   0.2125   0.0166667
0.4125   0.2125   0.0166667
0.4375   0.2125   0.0166667
0.4625   0.2125   0.0166667
0.4875   0.2125   0.0166667
0.5125   0.2125   0.0166667
0.5375   0.2125   0.0166667
0.5625   0.2125   0.0166667
0.5875   0.2125   0.0166667
0.6125   0.2125   0.0166667
0.6375   0.2125   0.0166667
0.6625   0.2125   0.0166667
0.6875   0.2125   0.0166667
0.7125   0.2125   0.0166667
0.7375   0.2125   0.0166667
0.7625   0.2125   0.0166667
0.7875   0.2125   0.0166667
[...]
POINT_DATA   48000
VECTORS Velocidad double

2.0686e-05 -2.25552e-06 1.47423e-07
6.20677e-05 -6.78006e-06 3.33387e-07
0.000103474 -1.09229e-05 4.96965e-07
0.000144912 -1.44091e-05 6.50132e-07
0.000186383 -1.70722e-05 7.95364e-07
0.000227876 -1.88618e-05 9.3128e-07
0.000269368 -1.98261e-05 1.05384e-06
0.000310828 -2.0074e-05 1.15637e-06
0.000352223 -1.97293e-05 1.22882e-06
0.000394089 -1.8892e-05 1.25667e-06
0.000435913 -1.76153e-05 0
0.000476142 -1.58945e-05 0
0.00051478 -1.36289e-05 0
0.000552267 -1.07078e-05 0
0.000588577 -6.91499e-06 0
0.00062365 -1.92982e-06 0
0.000657495 4.73547e-06 0
0.000690625 1.37268e-05 0
0.000724502 2.59416e-05 0
0.0010492 4.47514e-05 0
0.00107719 9.73451e-05 0
0.000817146 9.08574e-05 0
0.000808812 7.96407e-05 0
0.000752688 6.91865e-05 0
0.000699421 5.7796e-05 0
0.000655039 4.58266e-05 0
0.000622747 3.43798e-05 0
0.0006069 2.47206e-05 0
0.000614557 1.82652e-05 0
0.00097657 1.82614e-05 0
0.00112026 4.50002e-05 0
0.000926829 3.4764e-05 0
0.000901822 2.50627e-05 0
0.000808646 2.14795e-05 0
0.000688301 2.29941e-05 0
0.000542451 3.06319e-05 0
0.00036652 4.71782e-05 0
0.000150511 7.81655e-05 0
-0.000106998 0.000132868 0
-0.000122411 0.000198045 0
6.22754e-05 -6.57831e-06 3.35635e-07
0.00018685 -1.97972e-05 8.64099e-07
0.000311487 -3.19405e-05 1.34885e-06
0.000436204 -4.22143e-05 1.80981e-06
0.000560995 -5.01282e-05 2.25135e-06
0.000685822 -5.55202e-05 2.66867e-06
0.000810607 -5.85129e-05 3.0495e-06
0.000935241 -5.94078e-05 3.37368e-06
0.00105958 -5.8555e-05 3.61103e-06
0.00118425 -5.62412e-05 3.7173e-06
0.00130808 -5.26173e-05 0
0.00142845 -4.76555e-05 0
0.00154502 -4.11322e-05 0
0.00165804 -3.26859e-05 0
0.00176732 -2.1686e-05 0
0.00187264 -7.18694e-06 0
0.00197403 1.2219e-05 0
0.00207256 3.83548e-05 0
0.00217136 7.35192e-05 0
0.00266885 0.000125126 0
0.00275356 0.000252181 0
0.00241028 0.000238826 0
0.00239051 0.000220011 0
0.00230374 0.000193368 0
0.00221244 0.000160631 0
0.00213449 0.000125534 0
0.00208105 9.20376e-05 0
0.00206394 6.39537e-05 0
0.00209923 4.51468e-05 0
0.00263918 4.31647e-05 0
0.00289232 0.000101893 0
0.00264112 7.47163e-05 0
0.00255836 5.71626e-05 0
0.00234307 4.92571e-05 0
0.0020481 5.27378e-05 0
0.00168808 7.13266e-05 0
0.0012733 0.000110029 0
0.000821679 0.000174981 0
0.000381414 0.000267997 0
8.65568e-05 0.000330493 0
0.000104084 -1.03748e-05 5.01471e-07
0.000312292 -3.12959e-05 1.34451e-06
0.000520594 -5.06414e-05 2.13335e-06
0.000729014 -6.71812e-05 2.89032e-06
0.000937537 -8.01257e-05 3.61953e-06
0.00114609 -8.91742e-05 4.31221e-06
0.00135454 -9.44643e-05 4.94799e-06
0.00156268 -9.6422e-05 5.49366e-06
0.00177023 -9.5567e-05 5.89952e-06
0.00197769 -9.23375e-05 6.09286e-06
0.00218341 -8.69681e-05 9.1825e-07
0.00238411 -7.94033e-05 9.31141e-07
0.00257907 -6.93802e-05 8.81164e-07
0.00276819 -5.63018e-05 7.18627e-07
0.00295092 -3.91647e-05 3.75455e-07
0.00312676 -1.64452e-05 -2.32014e-07
0.00329548 1.40738e-05 -1.2605e-06
0.00345804 5.51914e-05 -2.98836e-06
0.00361764 0.000110088 -5.98371e-06
0.00422886 0.000187365 -1.24482e-05
0.00434777 0.000355935 -4.36853e-05
0.00397086 0.000346744 -4.41212e-05
0.00396552 0.000329709 -3.84115e-05
0.00387195 0.000290674 -3.24592e-05
0.00377104 0.000238286 -2.71948e-05
0.00368612 0.000181272 -2.27579e-05
0.00363245 0.000126885 -1.92803e-05
0.00362555 8.1346e-05 -1.70335e-05
0.00368464 5.03699e-05 -1.66157e-05
0.00431054 4.33058e-05 -2.02578e-05
0.00459697 0.000110654 -4.77761e-05
0.00430095 7.44056e-05 -4.92423e-05
0.00416838 5.58001e-05 -4.59846e-05
0.00384611 4.46548e-05 -4.35248e-05
0.00340192 4.70801e-05 -4.30772e-05
0.00285848 6.85155e-05 -4.55689e-05
0.00223665 0.000111798 -5.29515e-05
0.00156667 0.000174038 -6.96226e-05
0.000895657 0.00023478 -0.000103782
0.000283537 0.000213032 -0.000151944
0.000146193 -1.34117e-05 6.5494e-07
0.000438633 -4.06066e-05 1.78697e-06
0.000731199 -6.59971e-05 2.85803e-06
0.00102392 -8.80309e-05 3.89194e-06
0.00131676 -0.000105657 4.892e-06
0.00160962 -0.000118403 5.84559e-06
0.00190231 -0.000126346 6.72482e-06
0.00219452 -0.000129946 7.48436e-06
0.00248583 -0.000129815 8.05627e-06
0.00277659 -0.000126499 8.34131e-06
0.00306472 -0.000120304 3.03355e-06
0.00334642 -0.000111166 2.95557e-06
0.00362058 -9.88105e-05 2.60723e-06
0.00388668 -8.24822e-05 1.80116e-06
0.00414374 -6.08602e-05 2.94148e-07
0.00439078 -3.1908e-05 -2.22446e-06
0.00462706 7.30991e-06 -6.30795e-06
0.00485294 6.04515e-05 -1.28589e-05
0.00507091 0.00013146 -2.33727e-05
0.0057923 0.000230196 -4.12869e-05
0.0059382 0.000437806 -8.83775e-05
0.00552704 0.000434829 -0.000111188
0.00554926 0.000411805 -0.000110218
0.00546678 0.000358167 -0.000100594
0.00537536 0.000286039 -8.87899e-05
0.00530115 0.000207707 -7.74139e-05
0.0052606 0.000133172 -6.8007e-05
0.00526993 7.06291e-05 -6.2016e-05
0.00534796 2.71828e-05 -6.13736e-05
0.00603594 1.35548e-05 -7.00344e-05
0.00632231 8.72851e-05 -0.000109159
0.00596245 4.48794e-05 -0.000131212
0.00577821 1.89684e-05 -0.000133024
0.00535576 1.5944e-06 -0.000128974
0.00477263 -1.55015e-07 -0.00012433
0.00405526 1.90605e-05 -0.000120407
0.00322895 5.9536e-05 -0.000116354
0.00232703 0.000113026 -0.000107339
0.00139086 0.000154709 -7.73102e-05
0.000459902 0.000125865 8.3102e-06
0.000188721 -1.55979e-05 7.9791e-07
0.000566233 -4.74675e-05 2.19293e-06
0.000943903 -7.75855e-05 3.52074e-06
0.00132176 -0.0001042 4.80719e-06
0.00169976 -0.000126047 6.05509e-06
0.00207779 -0.000142462 7.24872e-06
0.00245558 -0.000153391 8.35366e-06
0.00283276 -0.000159241 9.31379e-06
0.00320874 -0.000160645 1.00448e-05
0.00358376 -0.00015821 1.04236e-05
0.00395535 -0.000152304 5.38771e-06
0.00431922 -0.000142879 5.07251e-06
0.00467388 -0.000129701 4.21434e-06
0.00501835 -0.000111917 2.48034e-06
0.00535112 -8.79599e-05 -5.74813e-07
0.00567062 -5.53481e-05 -5.55647e-06
0.0059754 -1.0485e-05 -1.34432e-05
0.00626497 5.11185e-05 -2.57367e-05
0.00654083 0.000134238 -4.46686e-05
0.00738052 0.000250536 -7.4343e-05
0.00755125 0.000496892 -0.000138021
0.00709826 0.00049229 -0.000171376
0.00715756 0.000458241 -0.000175218
0.00709994 0.000387012 -0.000164833
0.00703297 0.000294162 -0.000149203
0.00698332 0.000194918 -0.000133038
0.00696636 0.000101331 -0.000119462
0.00699692 2.29164e-05 -0.00011126
0.00709166 -3.23963e-05 -0.000111625
0.00783522 -5.28125e-05 -0.000125623
0.00810505 2.68508e-05 -0.000175802
0.00766467 -2.54387e-05 -0.000206273
0.00742532 -6.11001e-05 -0.000212405
0.00690402 -8.64434e-05 -0.00020799
0.00618381 -9.34908e-05 -0.000199474
0.00529136 -7.68973e-05 -0.000188369
0.00425286 -3.74052e-05 -0.00017286
0.00310265 1.58589e-05 -0.000147083
0.00188142 6.19305e-05 -9.95734e-05
0.0006292 6.29735e-05 -2.16791e-05
0.000231824 -1.69735e-05 9.30062e-07
0.000695563 -5.19866e-05 2.55998e-06
0.0011595 -8.55328e-05 4.11581e-06
0.00162365 -0.00011577 5.6262e-06
0.00208799 -0.000141279 7.09425e-06
0.00255237 -0.000161208 8.5021e-06
0.0030165 -0.000175331 9.81014e-06
0.0034799 -0.000183944 1.09531e-05
0.0039419 -0.000187646 1.18327e-05
0.00440264 -0.000187069 1.23049e-05
0.00485928 -0.000182648 7.6348e-06
0.00530702 -0.000174375 7.10009e-06
0.00574402 -0.000162112 5.76928e-06
0.00616882 -0.000144986 3.18984e-06
0.00657933 -0.000121261 -1.25167e-06
0.00697328 -8.80871e-05 -8.40727e-06
0.00734834 -4.12533e-05 -1.95822e-05
0.00770302 2.45754e-05 -3.66921e-05
0.00803767 0.000115161 -6.23944e-05
0.00900907 0.000244636 -0.000101111
0.00920252 0.000529639 -0.000178074
0.00869685 0.000512323 -0.000217904
0.00880318 0.000460848 -0.000224374
0.00878283 0.000368306 -0.000213288
0.00875398 0.000253562 -0.000195037
0.00874179 0.00013416 -0.000175641
0.00875863 2.33227e-05 -0.000159334
0.00881643 -6.89816e-05 -0.000149845
0.0089287 -0.000134702 -0.000151143
0.00972895 -0.00016138 -0.000168811
0.00997251 -7.60159e-05 -0.000226689
0.00943848 -0.000142592 -0.000261126
0.00914216 -0.000189642 -0.000268867
0.00852101 -0.000223273 -0.000263322
0.00766139 -0.00023445 -0.000251194
0.0065877 -0.000217307 -0.000234065
0.00532522 -0.000172316 -0.000210164
0.00390964 -0.000107296 -0.000174691
0.00238543 -3.81597e-05 -0.000120415
0.000801082 1.04221e-05 -4.29526e-05
0.000275698 -1.76566e-05 1.05029e-06
0.000827208 -5.4493e-05 2.88426e-06
0.00137895 -9.02917e-05 4.63634e-06
0.00193097 -0.000123203 6.33876e-06
0.00248322 -0.000151723 7.99573e-06
0.00303557 -0.000174847 9.58841e-06
0.00358768 -0.000192181 1.10734e-05
0.00413905 -0.000203892 1.23782e-05
0.00468888 -0.000210512 1.33926e-05
0.0052373 -0.00021269 1.39555e-05
0.00578112 -0.000210927 9.73719e-06
0.00631501 -0.000205296 9.01632e-06
0.0068368 -0.000195819 7.27212e-06
0.00734455 -0.000181686 3.95335e-06
0.00783556 -0.000161102 -1.69153e-06
0.00830675 -0.000130958 -1.07143e-05
0.00875479 -8.65119e-05 -2.46753e-05
0.00917696 -2.15899e-05 -4.57967e-05
0.00957232 7.0726e-05 -7.70316e-05
0.0106926 0.000207838 -0.000123072
0.0109046 0.00053092 -0.000211611
0.0103319 0.00048724 -0.000256639
0.0104977 0.000410439 -0.000264633
0.0105282 0.000292764 -0.000252389
0.0105519 0.000155703 -0.000231644
0.0105908 1.80448e-05 -0.000209418
0.0106527 -0.000107035 -0.000190735
0.0107455 -0.000210219 -0.000179966
0.0108789 -0.00028417 -0.00018156
0.0117409 -0.000316279 -0.000201398
0.0119512 -0.000226106 -0.000264725
0.011313 -0.000310798 -0.000301166
0.0109606 -0.000370094 -0.000308914
0.0102386 -0.000410782 -0.000301313
0.00923553 -0.000422871 -0.000285401
0.00797174 -0.000399754 -0.00026295
0.00647055 -0.000341043 -0.000232536
0.00476967 -0.00025269 -0.000190413
0.0029202 -0.000146494 -0.000131478
0.000982732 -3.93294e-05 -5.17661e-05
0.00032058 -1.77745e-05 1.1571e-06
0.000961879 -5.53425e-05 3.16137e-06
0.00160347 -9.23541e-05 5.07525e-06
0.00224538 -0.000127007 6.93532e-06
0.00288761 -0.000157788 8.74763e-06
0.00353002 -0.000183614 1.04934e-05
0.00417229 -0.000203969 1.21269e-05
0.00481385 -0.000218903 1.35702e-05
0.00545388 -0.000228885 1.47039e-05
0.0060925 -0.000234575 1.53527e-05
0.00672622 -0.000236558 1.16604e-05
0.00734916 -0.000235023 1.079e-05
0.00795882 -0.000230229 8.69916e-06
0.00855285 -0.000221543 4.7537e-06
0.00912789 -0.000207264 -1.91308e-06
0.00968001 -0.000184204 -1.25195e-05
0.0102047 -0.000147276 -2.88407e-05
0.0106978 -8.95829e-05 -5.33614e-05
0.0111566 -2.94094e-06 -8.93057e-05
0.0124465 0.000134246 -0.000141704
0.0126694 0.000493036 -0.00024127
0.0120117 0.000406315 -0.000290694
0.0122541 0.000295875 -0.000299447
0.0123516 0.000150611 -0.000285513
0.0124445 -7.0537e-06 -0.000262017
0.0125497 -0.00015889 -0.000236856
0.0126692 -0.000293423 -0.000215667
0.0128063 -0.000403293 -0.000203276
0.0129668 -0.000482799 -0.000204455
0.0138973 -0.000519779 -0.000225321
0.0140686 -0.000427808 -0.00029274
0.013319 -0.000533511 -0.000329784
0.0129147 -0.000604486 -0.000336487
0.012092 -0.000649126 -0.000326221
0.0109411 -0.000657056 -0.000306518
0.00947633 -0.000621154 -0.000279481
0.00771834 -0.000540136 -0.000244138
0.00570732 -0.000418193 -0.000197567
0.00350297 -0.000264083 -0.000135809
0.00118053 -8.97582e-05 -5.49178e-05
0.000366751 -1.74049e-05 1.24882e-06
0.00110043 -5.47517e-05 3.38689e-06
0.00183445 -9.20058e-05 5.42604e-06
0.00256887 -0.000127448 7.40778e-06
0.00330372 -0.000159637 9.34059e-06
0.00403887 -0.000187513 1.12067e-05
0.00477403 -0.000210512 1.29593e-05
0.00550862 -0.00022861 1.45167e-05
0.0062418 -0.000242225 1.57529e-05
0.00697377 -0.00025203 1.6482e-05
0.00770073 -0.000258712 1.33733e-05
0.00841626 -0.000262616 1.23894e-05
0.00911759 -0.000264327 1.00189e-05
0.00980198 -0.000263534 5.55656e-06
0.0104655 -0.000258845 -1.96324e-06
0.0111032 -0.000247298 -1.39045e-05
0.0117093 -0.000223828 -3.22386e-05
0.0122778 -0.000181165 -5.97052e-05
0.012804 -0.00010994 -9.98186e-05
0.0142874 1.65307e-05 -0.000158044
0.0145095 0.000404162 -0.00026867
0.013746 0.000254673 -0.000321851
0.0140887 0.000103856 -0.000330732
0.0142736 -6.78282e-05 -0.000314565
0.0144544 -0.000240446 -0.000287919
0.0146422 -0.00039908 -0.000259522
0.014833 -0.000535973 -0.000235512
0.0150253 -0.00064711 -0.00022106
0.0152205 -0.000729319 -0.000221178
0.0162263 -0.000771621 -0.000242213
0.016354 -0.000685197 -0.000312848
0.0154903 -0.000813127 -0.000349431
0.0150421 -0.000892957 -0.000354413
0.014121 -0.000936154 -0.000341193
0.0128175 -0.000933122 -0.000317906
0.011139 -0.000876813 -0.000287078
0.00910212 -0.000765228 -0.000248197
0.00674974 -0.000600989 -0.000198964
0.00415178 -0.000390478 -0.000136074
0.00140089 -0.000142068 -5.55426e-05
0.000414551 -1.6545e-05 1.32366e-06
0.00124386 -5.27119e-05 3.55687e-06
0.00207359 -8.92044e-05 5.68344e-06
0.00290381 -0.00012441 7.75026e-06
0.00373458 -0.000157054 9.7686e-06
0.00456583 -0.000186202 1.17224e-05
0.00539728 -0.000211335 1.35647e-05
0.00622842 -0.000232399 1.52122e-05
0.00705837 -0.000249772 1.65341e-05
0.00788752 -0.000264145 1.73375e-05
0.00871175 -0.000276309 1.48503e-05
0.00952412 -0.000286805 1.37871e-05
0.0103216 -0.00029664 1.12018e-05
0.0111012 -0.000306004 6.32718e-06
0.0118584 -0.000314106 -1.88873e-06
0.0125875 -0.000318665 -1.49425e-05
0.0132811 -0.000315279 -3.49937e-05
0.0139313 -0.000297052 -6.50429e-05
0.0145304 -0.000253945 -0.000108925
0.0162337 -0.000153819 -0.000172629
0.0164387 0.000245761 -0.000294508
0.0155489 1.27041e-05 -0.000350773
0.0160249 -0.000179996 -0.000359253
0.0163216 -0.000370171 -0.000340369
0.0166102 -0.000546211 -0.000310193
0.0168971 -0.000700073 -0.000278251
0.0171725 -0.000829748 -0.000251109
0.0174311 -0.000935713 -0.000234202
0.0176703 -0.00101805 -0.000232728
0.0187557 -0.00106801 -0.000253272
0.0188376 -0.0010021 -0.00032645
0.0178651 -0.00114985 -0.000361694
0.0173851 -0.00123233 -0.000364587
0.0163695 -0.00126606 -0.000348399
0.0149089 -0.00124382 -0.000321917
0.0130017 -0.0011593 -0.00028812
0.0106592 -0.00100987 -0.000246914
0.00792684 -0.000796522 -0.000196449
0.00488624 -0.000523477 -0.000133797
0.00165064 -0.000196044 -5.48784e-05
0.000464381 -1.5115e-05 1.3797e-06
0.0013934 -4.90017e-05 3.6681e-06
0.0023229 -8.36025e-05 5.84396e-06
0.00325299 -0.00011744 7.95977e-06
0.00418379 -0.000149491 1.00297e-05
0.00511527 -0.000179055 1.20396e-05
0.00604722 -0.000205733 1.39438e-05
0.00697916 -0.000229473 1.56579e-05
0.00791029 -0.000250617 1.70496e-05
0.00884117 -0.000269853 1.79221e-05
0.00976746 -0.000288071 1.60739e-05
0.0106816 -0.000306033 1.49641e-05
0.0115806 -0.00032526 1.2227e-05
0.0124612 -0.000346633 7.04261e-06
0.0133183 -0.000370318 -1.71683e-06
0.0141456 -0.000395324 -1.5669e-05
0.0149344 -0.000418869 -3.71556e-05
0.0156747 -0.000435737 -6.94433e-05
0.016355 -0.000436559 -0.000116713
0.0183037 -0.000385174 -0.000185538
0.0184724 -1.18036e-05 -0.000318708
0.0174436 -0.000342861 -0.000377178
0.0180969 -0.000567399 -0.000384853
0.0185321 -0.000757797 -0.000362917
0.0189471 -0.000918583 -0.000328968
0.0193469 -0.00105199 -0.000293297
0.0197186 -0.00116296 -0.000262832
0.0200539 -0.00125691 -0.000243199
0.0203472 -0.00133755 -0.00023974
0.0215108 -0.00140019 -0.000259265
0.0215499 -0.00138176 -0.000334351
0.020488 -0.00153939 -0.00036742
0.019991 -0.00161364 -0.000368114
0.0188862 -0.00162739 -0.000349182
0.0172634 -0.00157711 -0.000320035
0.0151101 -0.00145746 -0.000284098
0.0124305 -0.0012648 -0.000241628
0.00927162 -0.000998096 -0.000191088
0.00572794 -0.000659193 -0.000129753
0.00193735 -0.000250483 -5.34175e-05
0.00051672 -1.2988e-05 1.41482e-06
0.00155046 -4.32724e-05 3.71823e-06
0.00258477 -7.46811e-05 5.90614e-06
0.00361975 -0.000105909 8.03649e-06
0.00465561 -0.000136263 1.01261e-05
0.00569238 -0.000165354 1.2163e-05
0.00672993 -0.000192951 1.41028e-05
0.00776784 -0.00021902 1.58622e-05
0.00880539 -0.000243838 1.73089e-05
0.00984343 -0.000268058 1.82462e-05
0.0108774 -0.000292641 1.70356e-05
0.0118992 -0.000318564 1.59118e-05
0.0129057 -0.000347931 1.3087e-05
0.0138937 -0.00038248 7.69793e-06
0.0148579 -0.000423684 -1.44634e-06
0.0157916 -0.000472518 -1.60706e-05
0.0166852 -0.000529028 -3.86869e-05
0.0175265 -0.000591571 -7.28234e-05
0.0183005 -0.000654079 -0.000123014
0.0205101 -0.000682326 -0.00019645
0.0206276 -0.000416573 -0.000340507
0.0194722 -0.000833164 -0.000399961
0.0203551 -0.00105874 -0.000406624
0.0209524 -0.00121865 -0.000381547
0.021506 -0.00133954 -0.000343821
0.0220268 -0.00143478 -0.000304459
0.0225022 -0.0015155 -0.000270677
0.0229233 -0.00159126 -0.000248223
0.0232817 -0.00166945 -0.000242525
0.024511 -0.00175261 -0.000260586
0.0245213 -0.00182518 -0.000336844
0.0234118 -0.00196881 -0.000366852
0.0229121 -0.00201859 -0.000365482
0.0217229 -0.00200077 -0.00034423
0.0199319 -0.00191495 -0.000313069
0.0175132 -0.00175587 -0.000275832
0.0144606 -0.00151784 -0.000233058
0.0108204 -0.00119696 -0.000183416
0.00670098 -0.000792339 -0.000124286
0.00226947 -0.00030349 -5.13468e-05
0.000572134 -1.00304e-05 1.42631e-06
0.00171675 -3.51627e-05 3.70551e-06
0.00286201 -6.19237e-05 5.87039e-06
0.00400804 -8.92283e-05 7.98369e-06
0.0051551 -0.000116771 1.00641e-05
0.0063033 -0.000144514 1.21018e-05
0.0074526 -0.000172405 1.40539e-05
0.00860268 -0.000200403 1.58389e-05
0.0097529 -0.00022868 1.73274e-05
0.0109045 -0.0002578 1.83261e-05
0.0120526 -0.000288741 1.77367e-05
0.0131887 -0.000322655 1.66329e-05
0.0143096 -0.000362238 1.37876e-05
0.0154124 -0.000410163 8.30651e-06
0.0164919 -0.00046944 -1.04804e-06
0.0175412 -0.000543554 -1.60875e-05
0.0185506 -0.00063651 -3.94705e-05
0.0195072 -0.000752365 -7.4965e-05
0.0203927 -0.000892525 -0.000127444
0.0228461 -0.0010397 -0.000204706
0.0229225 -0.00104399 -0.000358555
0.021713 -0.00146025 -0.000417343
0.0228693 -0.00162723 -0.000423074
0.0236376 -0.00171761 -0.000395102
0.0243293 -0.00177421 -0.000353917
0.0249703 -0.00181669 -0.000311195
0.0255519 -0.00185883 -0.000274358
0.0260658 -0.00191232 -0.000249188
0.0265014 -0.00198802 -0.000241131
0.0277653 -0.0021009 -0.000257317
0.027781 -0.00232565 -0.000333565
0.0266995 -0.00240962 -0.000359921
0.0262028 -0.00241545 -0.000356764
0.0249316 -0.00235739 -0.000333765
0.0229658 -0.00223323 -0.000301347
0.0202617 -0.00203535 -0.000263679
0.0167971 -0.00175449 -0.000221509
0.0126134 -0.00138296 -0.000173644
0.00783241 -0.000916755 -0.000117514
0.0026566 -0.000352775 -4.87218e-05
0.000631301 -6.13836e-06 1.41056e-06
0.00189429 -2.44025e-05 3.62837e-06
0.00315801 -4.49691e-05 5.73857e-06
0.00442256 -6.70306e-05 7.8072e-06
0.00568826 -9.06965e-05 9.85382e-06
0.00695532 -0.000116271 1.18697e-05
0.00822378 -0.000143844 1.38136e-05
0.00949342 -0.000173319 1.56071e-05
0.0107637 -0.000204705 1.71253e-05
0.0120364 -0.000238409 1.81822e-05
0.0133063 -0.000275351 1.8187e-05
0.0145643 -0.000316772 1.7139e-05
0.0158075 -0.000365884 1.4345e-05
0.0170333 -0.000426221 8.89505e-06
0.0182368 -0.000502304 -4.73243e-07
0.0194119 -0.000600218 -1.56272e-05
0.0205495 -0.000728371 -3.93316e-05
0.0216377 -0.000897912 -7.55476e-05
0.0226579 -0.00112247 -0.000129443
0.0252589 -0.00142941 -0.000209381
0.0253789 -0.00198546 -0.000371138
0.0243077 -0.00216746 -0.000427154
0.0257231 -0.0021976 -0.000432346
0.0266399 -0.00218919 -0.000402104
0.0274523 -0.00217034 -0.000358154
0.0282042 -0.00215629 -0.000312754
0.0288905 -0.0021587 -0.000273415
0.0295029 -0.00218918 -0.000245851
0.030029 -0.00226179 -0.000235436
0.0312702 -0.00241027 -0.000249335
0.0313582 -0.00285309 -0.000324082
0.0304232 -0.00280873 -0.000346228
0.0299138 -0.00275721 -0.00034171
0.028559 -0.00266034 -0.000317696
0.026414 -0.00250397 -0.000284894
0.0234072 -0.00227508 -0.00024772
0.019491 -0.00195964 -0.000207061
0.014695 -0.00154573 -0.000161811
0.00915318 -0.00102621 -0.000109442
0.00310985 -0.000396014 -4.55441e-05
0.000695023 -1.26183e-06 1.36272e-06
0.00208551 -1.0877e-05 3.48508e-06
0.00347676 -2.37043e-05 5.5137e-06
0.00486888 -3.92743e-05 7.51512e-06
0.00626224 -5.81053e-05 9.50801e-06
0.00765711 -8.07797e-05 1.14837e-05
0.00905362 -0.00010745 1.34025e-05
0.0104517 -0.000137892 1.51893e-05
0.0118509 -0.000171889 1.67259e-05
0.0132534 -0.000209622 1.78369e-05
0.0146539 -0.000251866 1.84026e-05
0.0160427 -0.000299817 1.74476e-05
0.0174171 -0.00035704 1.47806e-05
0.0187748 -0.00042768 9.49436e-06
0.0201119 -0.00051737 3.31147e-07
0.0214232 -0.00063419 -1.45891e-05