# vtk DataFile Version 2.0
Velocidad
ASCII

DATASET STRUCTURED_GRID
DIMENSIONS   40   40   30

POINTS   48000   double
0.0125   0.0125   0.0166667
0.0375   0.0125   0.0166667
0.0625   0.0125   0.0166667
0.0875   0.0125   0.0166667
0.1125   0.0125   0.0166667
0.1375   0.0125   0.0166667
0.1625   0.0125   0.0166667
0.1875   0.0125   0.0166667
0.2125   0.0125   0.0166667
0.2375   0.0125   0.0166667
0.2625   0.0125   0.0166667
0.2875   0.0125   0.0166667
0.3125   0.0125   0.0166667
0.3375   0.0125   0.0166667
0.3625   0.0125   0.0166667
0.3875   0.0125   0.0166667
0.4125   0.0125   0.0166667
0.4375   0.0125   0.0166667
0.4625   0.0125   0.0166667
0.4875   0.0125   0.0166667
0.5125   0.0125   0.0166667
0.5375   0.0125   0.0166667
0.5625   0.0125   0.0166667
0.5875   0.0125   0.0166667
0.6125   0.0125   0.0166667
0.6375   0.0125   0.0166667
0.6625   0.0125   0.0166667
0.6875   0.0125   0.0166667
0.7125   0.0125   0.0166667
0.7375   0.0125   0.0166667
0.7625   0.0125   0.0166667
0.7875   0.0125   0.0166667
0.8125   0.0125   0.0166667
0.8375   0.0125   0.0166667
0.8625   0.0125   0.0166667
0.8875   0.0125   0.0166667
0.9125   0.0125   0.0166667
0.9375   0.0125   0.0166667
0.9625   0.0125   0.0166667
0.9875   0.0125   0.0166667
0.0125   0.0375   0.0166667
0.0375   0.0375   0.0166667
0.0625   0.0375   0.0166667
0.0875   0.0375   0.0166667
0.1125   0.0375   0.0166667
0.1375   0.0375   0.0166667
0.1625   0.0375   0.0166667
0.1875   0.0375   0.0166667
0.2125   0.0375   0.0166667
0.2375   0.0375   0.0166667
0.2625   0.0375   0.0166667
0.2875   0.0375   0.0166667
0.3125   0.0375   0.0166667
0.3375   0.0375   0.0166667
0.3625   0.0375   0.0166667
0.3875   0.0375   0.0166667
0.4125   0.0375   0.0166667
0.4375   0.0375   0.0166667
0.4625   0.0375   0.0166667
0.4875   0.0375   0.0166667
0.5125   0.0375   0.0166667
0.5375   0.0375   0.0166667
0.5625   0.0375   0.0166667
0.5875   0.0375   0.0166667
0.6125   0.0375   0.0166667
0.6375   0.0375   0.0166667
0.6625   0.0375   0.0166667
0.6875   0.0375   0.0166667
0.7125   0.0375   0.0166667
0.7375   0.0375   0.0166667
0.7625   0.0375   0.0166667
0.7875   0.0375   0.0166667
0.8125   0.0375   0.0166667
0.8375   0.0375   0.0166667
0.8625   0.0375   0.0166667
0.8875   0.0375   0.0166667
0.9125   0.0375   0.0166667
0.9375   0.0375   0.0166667
0.9625   0.0375   0.0166667
0.9875   0.0375   0.0166667
0.0125   0.0625   0.0166667
0.0375   0.0625   0.0166667
0.0625   0.0625   0.0166667
0.0875   0.0625   0.0166667
0.1125   0.0625   0.0166667
0.1375   0.0625   0.0166667
0.1625   0.0625   0.0166667
0.1875   0.0625   0.0166667
0.2125   0.0625   0.0166667
0.2375   0.0625   0.0166667
0.2625   0.0625   0.0166667
0.2875   0.0625   0.0166667
0.3125   0.0625   0.0166667
0.3375   0.0625   0.0166667
0.3625   0.0625   0.0166667
0.3875   0.0625   0.0166667
0.4125   0.0625   0.0166667
0.4375   0.0625   0.0166667
0.4625   0.0625   0.0166667
0.4875   0.0625   0.0166667
0.5125   0.0625   0.0166667
0.5375   0.0625   0.0166667
0.5625   0.0625   0.0166667
0.5875   0.0625   0.0166667
0.6125   0.0625   0.0166667
0.6375   0.0625   0.0166667
0.6625   0.0625   0.0166667
0.6875   0.0625   0.0166667
0.7125   0.0625   0.0166667
0.7375   0.0625   0.0166667
0.7625   0.0625   0.0166667
0.7875   0.0625   0.0166667
0.8125   0.0625   0.0166667
0.8375   0.0625   0.0166667
0.8625   0.0625   0.0166667
0.8875   0.0625   0.0166667
0.9125   0.0625   0.0166667
0.9375   0.0625   0.0166667
0.9625   0.0625   0.0166667
0.9875   0.0625   0.0166667
0.0125   0.0875   0.0166667
0.0375   0.0875   0.0166667
0.0625   0.0875   0.0166667
0.0875   0.0875   0.0166667
0.1125   0.0875   0.0166667
0.1375   0.0875   0.0166667
0.1625   0.0875   0.0166667
0.1875   0.0875   0.0166667
0.2125   0.0875   0.0166667
0.2375   0.0875   0.0166667
0.2625   0.0875   0.0166667
0.2875   0.0875   0.0166667
0.3125   0.0875   0.0166667
0.3375   0.0875   0.0166667
0.3625   0.0875   0.0166667
0.3875   0.0875   0.0166667
0.4125   0.0875   0.0166667
0.4375   0.0875   0.0166667
0.4625   0.0875   0.0166667
0.4875   0.0875   0.0166667
0.5125   0.0875   0.0166667
0.5375   0.0875   0.0166667
0.5625   0.0875   0.0166667
0.5875   0.0875   0.0166667
0.6125   0.0875   0.0166667
0.6375   0.0875   0.0166667
0.6625   0.0875   0.0166667
0.6875   0.0875   0.0166667
0.7125   0.0875   0.0166667
0.7375   0.0875   0.0166667
0.7625   0.0875   0.0166667
0.7875   0.0875   0.0166667
0.8125   0.0875   0.0166667
0.8375   0.0875   0.0166667
0.8625   0.0875   0.0166667
0.8875   0.0875   0.0166667
0.9125   0.0875   0.0166667
0.9375   0.0875   0.0166667
0.9625   0.0875   0.0166667
0.9875   0.0875   0.0166667
0.0125   0.1125   0.0166667
0.0375   0.1125   0.0166667
0.0625   0.1125   0.0166667
0.0875   0.1125   0.0166667
0.1125   0.1125   0.0166667
0.1375   0.1125   0.0166667
0.1625   0.1125   0.0166667
0.1875   0.1125   0.0166667
0.2125   0.1125   0.0166667
0.2375   0.1125   0.0166667
0.2625   0.1125   0.0166667
0.2875   0.1125   0.0166667
0.3125   0.1125   0.0166667
0.3375   0.1125   0.0166667
0.3625   0.1125   0.0166667
0.3875   0.1125   0.0166667
0.4125   0.1125   0.0166667
0.4375   0.1125   0.0166667
0.4625   0.1125   0.0166667
0.4875   0.1125   0.0166667
0.5125   0.1125   0.0166667
0.5375   0.1125   0.0166667
0.5625   0.1125   0.0166667
0.5875   0.1125   0.0166667
0.6125   0.1125   0.0166667
0.6375   0.1125   0.0166667
0.6625   0.1125   0.0166667
0.6875   0.1125   0.0166667
0.7125   0.1125   0.0166667
0.7375   0.1125   0.0166667
0.7625   0.1125   0.0166667
0.7875   0.1125   0.0166667
0.8125   0.1125   0.0166667
0.8375   0.1125   0.0166667
0.8625   0.1125   0.0166667
0.8875   0.1125   0.0166667
0.9125   0.1125   0.0166667
0.9375   0.1125   0.0166667
0.9625   0.1125   0.0166667
0.9875   0.1125   0.0166667
0.0125   0.1375   0.0166667
0.0375   0.1375   0.0166667
0.0625   0.1375   0.0166667
0.0875   0.1375   0.0166667
0.1125   0.1375   0.0166667
0.1375   0.1375   0.0166667
0.1625   0.1375   0.0166667
0.1875   0.1375   0.0166667
0.2125   0.1375   0.0166667
0.2375   0.1375   0.0166667
0.2625   0.1375   0.0166667
0.2875   0.1375   0.0166667
0.3125   0.1375   0.0166667
0.3375   0.1375   0.0166667
0.3625   0.1375   0.0166667
0.3875   0.1375   0.0166667
0.4125   0.1375   0.0166667
0.4375   0.1375   0.0166667
0.4625   0.1375   0.0166667
0.4875   0.1375   0.0166667
0.5125   0.1375   0.0166667
0.5375   0.1375   0.0166667
0.5625   0.1375   0.0166667
0.5875   0.1375   0.0166667
0.6125   0.1375   0.0166667
0.6375   0.1375   0.0166667
0.6625   0.1375   0.0166667
0.6875   0.1375   0.0166667
0.7125   0.1375   0.0166667
0.7375   0.1375   0.0166667
0.7625   0.1375   0.0166667
0.7875   0.1375   0.0166667
0.8125   0.1375   0.0166667
0.8375   0.1375   0.0166667
0.8625   0.1375   0.0166667
0.8875   0.1375   0.0166667
0.9125   0.1375   0.0166667
0.9375   0.1375   0.0166667
0.9625   0.1375   0.0166667
0.9875   0.1375   0.0166667
0.0125   0.1625   0.0166667
0.0375   0.1625   0.0166667
0.0625   0.1625   0.0166667
0.0875   0.1625   0.0166667
0.1125   0.1625   0.0166667
0.1375   0.1625   0.0166667
0.1625   0.1625   0.0166667
0.1875   0.1625   0.0166667
0.2125   0.1625   0.0166667
0.2375   0.1625   0.0166667
0.2625   0.1625   0.0166667
0.2875   0.1625   0.0166667
0.3125   0.1625   0.0166667
0.3375   0.1625   0.0166667
0.3625   0.1625   0.0166667
0.3875   0.1625   0.0166667
0.4125   0.1625   0.0166667
0.4375   0.1625   0.0166667
0.4625   0.1625   0.0166667
0.4875   0.1625   0.0166667
0.5125   0.1625   0.0166667
0.5375   0.1625   0.0166667
0.5625   0.1625   0.0166667
0.5875   0.1625   0.0166667
0.6125   0.1625   0.0166667
0.6375   0.1625   0.0166667
0.6625   0.1625   0.0166667
0.6875   0.1625   0.0166667
0.7125   0.1625   0.0166667
0.7375   0.1625   0.0166667
0.7625   0.1625   0.0166667
0.7875   0.1625   0.0166667
0.8125   0.1625   0.0166667
0.8375   0.1625   0.0166667
0.8625   0.1625   0.0166667
0.8875   0.1625   0.0166667
0.9125   0.1625   0.0166667
0.9375   0.1625   0.0166667
0.9625   0.1625   0.0166667
0.9875   0.1625   0.0166667
0.0125   0.1875   0.0166667
0.0375   0.1875   0.0166667
0.0625   0.1875   0.0166667
0.0875   0.1875   0.0166667
0.1125   0.1875   0.0166667
0.1375   0.1875   0.0166667
0.1625   0.1875   0.0166667
0.1875   0.1875   0.0166667
0.2125   0.1875   0.0166667
0.2375   0.1875   0.0166667
0.2625   0.1875   0.0166667
0.2875   0.1875   0.0166667
0.3125   0.1875   0.0166667
0.3375   0.1875   0.0166667
0.3625   0.1875   0.0166667
0.3875   0.1875   0.0166667
0.4125   0.1875   0.0166667
0.4375   0.1875   0.0166667
0.4625   0.1875   0.0166667
0.4875   0.1875   0.0166667
0.5125   0.1875   0.0166667
0.5375   0.1875   0.0166667
0.5625   0.1875   0.0166667
0.5875   0.1875   0.0166667
0.6125   0.1875   0.0166667
0.6375   0.1875   0.0166667
0.6625   0.1875   0.0166667
0.6875   0.1875   0.0166667
0.7125   0.1875   0.0166667
0.7375   0.1875   0.0166667
0.7625   0.1875   0.0166667
0.7875   0.1875   0.0166667
0.8125   0.1875   0.0166667
0.8375   0.1875   0.0166667
0.8625   0.1875   0.0166667
0.8875   0.1875   0.0166667
0.9125   0.1875   0.0166667
0.9375   0.1875   0.0166667
0.9625   0.1875   0.0166667
0.9875   0.1875   0.0166667
0.0125   0.2125   0.0166667
0.0375   0.2125   0.0166667
0.0625   0.2125   0.0166667
0.0875   0.2125   0.0166667
0.1125   0.2125   0.0166667
0.1375   0.2125   0.0166667
0.1625   0.2125   0.0166667
0.1875   0.2125   0.0166667
0.2125   0.2125   0.0166667
0.2375   0.2125   0.0166667
0.2625   0.2125   0.0166667
0.2875   0.2125   0.0166667
0.3125   0.2125   0.0166667
0.3375   0.2125   0.0166667
0.3625   0.2125   0.0166667
0.3875   0.2125   0.0166667
0.4125   0.2125   0.0166667
0.4375   0.2125   0.0166667
0.4625   0.2125   0.0166667
0.4875   0.2125   0.0166667
0.5125   0.2125   0.0166667
0.5375   0.2125   0.0166667
0.5625   0.2125   0.0166667
0.5875   0.2125   0.0166667
0.6125   0.2125   0.0166667
0.6375   0.2125   0.0166667
0.6625   0.2125   0.0166667
0.6875   0.2125   0.0166667
0.7125   0.2125   0.0166667
0.7375   0.2125   0.0166667
0.7625   0.2125   0.0166667
0.7875   0.2125   0.0166667
[...]
POINT_DATA   48000
VECTORS Velocidad double

2.07719e-05 -1.30297e-06 1.38553e-07
6.23102e-05 -3.94979e-06 3.22683e-07
0.000103839 -6.39348e-06 4.84393e-07
0.000145351 -8.4621e-06 6.3305e-07
0.00018683 -1.00407e-05 7.70839e-07
0.000228254 -1.10798e-05 8.9655e-07
0.000269595 -1.15876e-05 1.00673e-06
0.000310822 -1.16108e-05 1.09525e-06
0.000351907 -1.12095e-05 1.15245e-06
0.000393251 -1.04333e-05 1.16425e-06
0.000434384 -9.30342e-06 0
0.000474193 -7.79323e-06 0
0.000512705 -5.82724e-06 0
0.000550121 -3.28889e-06 0
0.000586378 1.98797e-08 0
0.000621385 4.39662e-06 0
0.000655076 1.03052e-05 0
0.000687607 1.85053e-05 0
0.000719885 3.04132e-05 0
0.000858322 4.81007e-05 0
0.00092211 7.67954e-05 0
0.000849374 8.0237e-05 0
0.000812588 7.61282e-05 0
0.000768004 6.82545e-05 0
0.000725135 5.82471e-05 0
0.000687202 4.72875e-05 0
0.000658129 3.66003e-05 0
0.000641799 2.75629e-05 0
0.000644017 2.196e-05 0
0.000808521 2.2045e-05 0
0.00094425 3.26192e-05 0
0.000899367 2.87931e-05 0
0.000839499 2.45377e-05 0
0.000754084 2.18786e-05 0
0.00064633 2.23302e-05 0
0.000516527 2.72623e-05 0
0.000363033 3.87845e-05 0
0.000181566 6.07272e-05 0
-3.37678e-05 9.66489e-05 0
-7.53665e-05 0.000145383 0
6.2486e-05 -3.88243e-06 3.24739e-07
0.000187447 -1.17617e-05 8.51884e-07
0.000312377 -1.9034e-05 1.3313e-06
0.000437241 -2.51885e-05 1.77925e-06
0.000561988 -2.98861e-05 2.19857e-06
0.000686547 -3.29834e-05 2.58481e-06
0.000810829 -3.45099e-05 2.92725e-06
0.000934726 -3.46089e-05 3.20723e-06
0.00105812 -3.34626e-05 3.39535e-06
0.00118146 -3.12222e-05 3.44822e-06
0.00130375 -2.79522e-05 0
0.00142304 -2.35777e-05 0
0.001539 -1.79003e-05 0
0.00165165 -1.05643e-05 0
0.00176071 -9.86279e-07 0
0.00186587 1.17101e-05 0
0.0019669 2.88582e-05 0
0.00206398 5.25698e-05 0
0.00215849 8.65683e-05 0
0.0024145 0.000136012 0
0.00254871 0.000210493 0
0.00244563 0.000222114 0
0.00237998 0.000212898 0
0.00230272 0.000190746 0
0.00222496 0.000161562 0
0.00215617 0.000129495 0
0.00210618 9.84062e-05 0
0.00208425 7.22842e-05 0
0.00210224 5.59582e-05 0
0.0023772 5.52201e-05 0
0.00260353 7.97146e-05 0
0.00252378 7.02232e-05 0
0.0023829 5.91201e-05 0
0.00217208 5.15687e-05 0
0.00189872 5.204e-05 0
0.00157053 6.38901e-05 0
0.00119726 9.07789e-05 0
0.000793928 0.000136653 0
0.000398754 0.00019838 0
0.000105158 0.000240238 0
0.000104396 -6.3682e-06 4.88744e-07
0.000313173 -1.92894e-05 1.33018e-06
0.000521895 -3.12088e-05 2.11033e-06
0.000730501 -4.1291e-05 2.84612e-06
0.000938899 -4.899e-05 3.53925e-06
0.00114697 -5.40848e-05 4.18147e-06
0.00135456 -5.6639e-05 4.75472e-06
0.00156147 -5.69023e-05 5.22795e-06
0.00176746 -5.5186e-05 5.55247e-06
0.00197289 -5.17484e-05 5.65604e-06
0.00217637 -4.67051e-05 8.46936e-07
0.0023754 -3.99454e-05 8.41379e-07
0.0025693 -3.11887e-05 7.72946e-07
0.00275775 -1.98559e-05 5.97762e-07
0.00294015 -5.00558e-06 2.56137e-07
0.00311582 1.47752e-05 -3.298e-07
0.00328418 4.15813e-05 -1.30143e-06
0.003445 7.86e-05 -2.93611e-06
0.00359903 0.00013111 -5.95168e-06
0.00394118 0.000205925 -1.19981e-05
0.0041232 0.000311804 -2.89182e-05
0.00401274 0.000333542 -3.20817e-05
0.00394701 0.000321978 -2.99255e-05
0.003863 0.000287473 -2.62354e-05
0.00377617 0.00024041 -2.24387e-05
0.00369942 0.000188407 -1.90171e-05
0.00364614 0.000138094 -1.62491e-05
0.00362831 9.5797e-05 -1.44735e-05
0.00365952 6.85891e-05 -1.44284e-05
0.00398721 6.44005e-05 -1.77486e-05
0.00424004 9.33934e-05 -3.24961e-05
0.00411873 8.06556e-05 -3.57443e-05
0.00390837 6.4592e-05 -3.49318e-05
0.00358805 5.26127e-05 -3.36028e-05
0.00316871 5.13249e-05 -3.32643e-05
0.00266378 6.47102e-05 -3.48907e-05
0.00209158 9.46341e-05 -3.99847e-05
0.00147677 0.000138329 -5.16102e-05
0.000855745 0.000178558 -7.36555e-05
0.000274568 0.000154438 -0.000112869
0.000146597 -8.6798e-06 6.37503e-07
0.000439774 -2.63045e-05 1.76608e-06
0.000732877 -4.25519e-05 2.82406e-06
0.00102581 -5.62851e-05 3.82871e-06
0.00131845 -6.67801e-05 4.78029e-06
0.00161063 -7.37659e-05 5.66672e-06
0.00190213 -7.73615e-05 6.46278e-06
0.00219265 -7.7936e-05 7.1256e-06
0.00248184 -7.59397e-05 7.58818e-06
0.00276992 -7.17476e-05 7.75118e-06
0.00305518 -6.5539e-05 2.7845e-06
0.00333466 -5.71871e-05 2.63601e-06
0.00360736 -4.63586e-05 2.22096e-06
0.00387256 -3.22951e-05 1.37272e-06
0.00412921 -1.37356e-05 -1.26208e-07
0.00437616 1.12192e-05 -2.56552e-06
0.00461229 4.53469e-05 -6.43431e-06
0.00483661 9.2774e-05 -1.25888e-05
0.00504874 0.000160102 -2.27734e-05
0.00546837 0.00025552 -4.07511e-05
0.0056924 0.000388373 -7.51757e-05
0.00558274 0.000418607 -9.38528e-05
0.0055315 0.000402688 -9.38392e-05
0.00545778 0.000355269 -8.6613e-05
0.00537942 0.000290477 -7.70418e-05
0.00531066 0.000219082 -6.7493e-05
0.00526618 0.000150189 -5.94409e-05
0.00525836 9.20725e-05 -5.42809e-05
0.00529994 5.3517e-05 -5.40808e-05
0.00565684 4.39604e-05 -6.27993e-05
0.00590852 7.46269e-05 -9.00504e-05
0.00573652 5.81245e-05 -0.000106991
0.00545769 3.66893e-05 -0.000107956
0.00503349 1.9804e-05 -0.000104301
0.00447535 1.53432e-05 -9.97869e-05
0.00379905 2.72514e-05 -9.56795e-05
0.00302702 5.54511e-05 -9.15956e-05
0.00218701 9.32028e-05 -8.42076e-05
0.00131213 0.000120437 -6.36069e-05
0.000435206 9.34153e-05 6.30642e-06
0.000189222 -1.0728e-05 7.71572e-07
0.000567649 -3.25444e-05 2.15801e-06
0.000945986 -5.26414e-05 3.46657e-06
0.00132411 -6.96145e-05 4.7158e-06
0.00170187 -8.2603e-05 5.90498e-06
0.00207905 -9.13236e-05 7.01854e-06
0.00245536 -9.59765e-05 8.02456e-06
0.00283044 -9.70652e-05 8.8692e-06
0.0032038 -9.51868e-05 9.46868e-06
0.00357556 -9.08424e-05 9.69907e-06
0.00394369 -8.42902e-05 4.92778e-06
0.00430484 -7.54113e-05 4.50467e-06
0.00465766 -6.38591e-05 3.53791e-06
0.00500101 -4.87423e-05 1.72448e-06
0.00533335 -2.85309e-05 -1.33394e-06
0.00565296 -8.89938e-07 -6.18451e-06
0.00595799 3.7597e-05 -1.36868e-05
0.00624652 9.19839e-05 -2.52315e-05
0.00651685 0.00017028 -4.33222e-05
0.00701588 0.000282323 -7.26226e-05
0.00728188 0.000439005 -0.000122247
0.00717433 0.000472053 -0.000151588
0.0071466 0.00044743 -0.000155874
0.00709578 0.000384385 -0.000147587
0.00703984 0.000300921 -0.000134137
0.00699213 0.000210516 -0.000119804
0.00696665 0.000124158 -0.000107487
0.0069745 5.14663e-05 -9.97772e-05
0.0070261 2.37309e-06 -9.993e-05
0.00740501 -1.26022e-05 -0.000113107
0.00764354 1.88986e-05 -0.000149563
0.0074122 -3.46486e-06 -0.0001739
0.00706274 -3.15946e-05 -0.000177884
0.00653513 -5.40875e-05 -0.000172935
0.00583843 -6.18575e-05 -0.000164217
0.00498766 -5.08759e-05 -0.00015333
0.00400656 -2.20319e-05 -0.000139201
0.00292451 1.72052e-05 -0.000117698
0.00177538 4.9787e-05 -8.05932e-05
0.00059424 4.68411e-05 -2.19792e-05
0.000232439 -1.24068e-05 8.89569e-07
0.000697306 -3.77024e-05 2.50196e-06
0.00116208 -6.09914e-05 4.03063e-06
0.0016266 -8.06483e-05 5.49645e-06
0.0020907 -9.57274e-05 6.89839e-06
0.00255413 -0.000105977 8.2179e-06
0.00301656 -0.000111707 9.41708e-06
0.00347754 -0.000113564 1.04322e-05
0.00393648 -0.000112296 1.11647e-05
0.00439343 -0.000108536 1.1469e-05
0.00484607 -0.000102637 6.97741e-06
0.00529062 -9.45161e-05 6.29866e-06
0.00572541 -8.3862e-05 4.81854e-06
0.00614889 -6.9709e-05 2.12306e-06
0.00655899 -5.03249e-05 -2.34102e-06
0.00695332 -2.30025e-05 -9.33522e-06
0.00732921 1.62777e-05 -2.0005e-05
0.00768366 7.35383e-05 -3.6109e-05
0.00801349 0.000158405 -6.05974e-05
0.00859784 0.000282777 -9.85809e-05
0.00890711 0.000459934 -0.000159273
0.00880035 0.000488029 -0.000195661
0.00880406 0.000448596 -0.000202605
0.00878778 0.000366241 -0.000193708
0.00876744 0.000262914 -0.00017776
0.00875338 0.000154197 -0.000160275
0.00875728 5.21467e-05 -0.000145171
0.00878762 -3.30793e-05 -0.0001359
0.00885171 -9.10889e-05 -0.000136471
0.00925241 -0.000110801 -0.000152638
0.00947231 -7.88802e-05 -0.000194695
0.00917507 -0.000109328 -0.000222851
0.00875311 -0.000145252 -0.000227861
0.00812076 -0.000173139 -0.000221447
0.00728233 -0.000182571 -0.000209136
0.00624974 -0.000169133 -0.000192713
0.0050465 -0.000133601 -0.000171182
0.00370399 -8.25713e-05 -0.000141016
0.00226039 -2.93579e-05 -9.68067e-05
0.000759235 6.53771e-06 -3.48047e-05
0.000276461 -1.36025e-05 9.89947e-07
0.00082938 -4.14517e-05 2.79426e-06
0.0013822 -6.70905e-05 4.51041e-06
0.00193477 -8.87312e-05 6.16241e-06
0.00248687 -0.000105403 7.74946e-06
0.00303825 -0.000116932 9.25066e-06
0.00358854 -0.000123757 1.0623e-05
0.00413723 -0.000126676 1.17942e-05
0.00468366 -0.000126579 1.26529e-05
0.00522783 -0.000124234 1.30353e-05
0.00576714 -0.000120102 8.90402e-06
0.00629739 -0.000114173 8.0041e-06
0.00681661 -0.000106229 6.072e-06
0.00732284 -9.53078e-05 2.60083e-06
0.00781345 -7.95737e-05 -3.09089e-06
0.00828534 -5.60469e-05 -1.19405e-05
0.0087349 -2.01751e-05 -2.53186e-05
0.00915787 3.50577e-05 -4.52608e-05
0.00954935 0.000121126 -7.50566e-05
0.0102268 0.000252455 -0.000120223
0.0105801 0.000445674 -0.000190374
0.0104713 0.000459143 -0.000232177
0.0105155 0.000397684 -0.000240781
0.0105465 0.000292254 -0.000231014
0.010576 0.000168529 -0.000212847
0.0106091 4.32196e-05 -0.000192717
0.0106539 -7.16717e-05 -0.000175283
0.0107152 -0.000166474 -0.000164604
0.0107967 -0.000231174 -0.000165192
0.0112223 -0.000254766 -0.000183203
0.0114209 -0.000223183 -0.000229111
0.0110536 -0.000263727 -0.000259157
0.010559 -0.0003078 -0.000263951
0.00982068 -0.000339595 -0.000255526
0.00883595 -0.000347385 -0.000239719
0.00761167 -0.000326285 -0.000218516
0.00617019 -0.000276581 -0.000191237
0.00454547 -0.000203611 -0.000155141
0.00278247 -0.000117672 -0.000106185
0.000936337 -3.28083e-05 -4.11478e-05
0.000321542 -1.42096e-05 1.07129e-06
0.000964635 -4.34913e-05 3.03209e-06
0.00160765 -7.04726e-05 4.90201e-06
0.00225039 -9.32737e-05 6.70843e-06
0.00289268 -0.000110961 8.45123e-06
0.00353422 -0.000123479 1.01077e-05
0.00417463 -0.000131412 1.16307e-05
0.00481338 -0.000135697 1.29409e-05
0.00544975 -0.00013736 1.39167e-05
0.00608374 -0.000137293 1.43791e-05
0.00671247 -0.000136084 1.06793e-05
0.00733133 -0.000133832 9.59891e-06
0.00793808 -0.000130487 7.28558e-06
0.00853035 -0.000125204 3.15348e-06
0.00910499 -0.000116182 -3.58663e-06
0.00965812 -0.000100339 -1.40201e-05
0.0101851 -7.27505e-05 -2.97087e-05
0.0106801 -2.54835e-05 -5.29308e-05
0.011136 5.49325e-05 -8.7308e-05
0.0119155 0.000185896 -0.000138849
0.0123122 0.000388662 -0.00021786
0.0121976 0.000375849 -0.000264317
0.0122939 0.000284958 -0.000273908
0.0123876 0.000153889 -0.000262844
0.012483 1.10903e-05 -0.000242289
0.0125783 -0.00012719 -0.000219487
0.0126767 -0.000250505 -0.000199682
0.0127792 -0.000350897 -0.00018738
0.012885 -0.000419707 -0.00018747
0.0133403 -0.000446742 -0.000206465
0.0135167 -0.000417465 -0.000255178
0.0130775 -0.000469765 -0.000286023
0.0125128 -0.000521173 -0.00028982
0.0116685 -0.000553857 -0.000279012
0.0105325 -0.000555219 -0.000259827
0.00910472 -0.000520145 -0.00023453
0.00740554 -0.00044846 -0.000202816
0.00547192 -0.000344348 -0.000162593
0.00335741 -0.000215864 -0.000110629
0.00113132 -7.36355e-05 -4.36724e-05
0.000367985 -1.41515e-05 1.13238e-06
0.00110398 -4.3605e-05 3.2135e-06
0.00183992 -7.08069e-05 5.20326e-06
0.0025756 -9.3861e-05 7.13206e-06
0.00331084 -0.000111931 9.00057e-06
0.00404537 -0.000125113 1.07848e-05
0.00477878 -0.000134138 1.24344e-05
0.00551055 -0.000140072 1.38647e-05
0.00623991 -0.000144049 1.49462e-05
0.00696692 -0.00014708 1.54886e-05
0.00768847 -0.000149889 1.22769e-05
0.0083995 -0.000152734 1.10579e-05
0.00909754 -0.000155822 8.43565e-06
0.0097799 -0.000158562 3.75664e-06
0.0104429 -0.0001594 -3.86145e-06
0.0110819 -0.00015542 -1.56345e-05
0.011691 -0.000141646 -3.32997e-05
0.0122626 -0.000109533 -5.93757e-05
0.0127866 -4.37501e-05 -9.78479e-05
0.0136778 7.63068e-05 -0.000155328
0.0141155 0.000278195 -0.000243047
0.0139911 0.000225668 -0.000293665
0.0141553 9.94405e-05 -0.000303699
0.0143303 -5.66821e-05 -0.000290883
0.0145101 -0.000213822 -0.000267622
0.014684 -0.000358589 -0.000241926
0.0148499 -0.000483918 -0.000219527
0.0150048 -0.000584888 -0.000205285
0.0151436 -0.000655252 -0.000204396
0.0156341 -0.000686497 -0.000223733
0.0157884 -0.000663947 -0.000274558
0.0152793 -0.00072901 -0.00030546
0.0146502 -0.000785183 -0.000307791
0.0137015 -0.000813885 -0.000294455
0.0124094 -0.000802666 -0.000272152
0.0107646 -0.000746705 -0.000243479
0.00878438 -0.000645538 -0.000208492
0.00650901 -0.000502335 -0.000165585
0.00400219 -0.000323358 -0.00011201
0.00135017 -0.000116712 -4.44543e-05
0.000416149 -1.33998e-05 1.17218e-06
0.00124849 -4.17147e-05 3.33739e-06
0.00208081 -6.79761e-05 5.41365e-06
0.00291289 -9.03466e-05 7.43335e-06
0.00374457 -0.00010814 9.3977e-06
0.0045756 -0.000121626 1.12819e-05
0.00540558 -0.000131681 1.30333e-05
0.006234 -0.000139469 1.45638e-05
0.00706009 -0.000146214 1.57383e-05
0.00788402 -0.000153029 1.63592e-05
0.00870245 -0.000160786 1.36752e-05
0.00950989 -0.000169945 1.2358e-05
0.0103037 -0.000181072 9.49791e-06
0.011081 -0.000194003 4.38271e-06
0.0118375 -0.000207697 -3.95164e-06
0.0125679 -0.000219811 -1.68401e-05
0.0132651 -0.000225878 -3.61891e-05
0.0139193 -0.000217452 -6.47653e-05
0.0145165 -0.000178133 -0.000106959
0.0155295 -8.46016e-05 -0.000170083
0.0160042 9.89124e-05 -0.000266468
0.0158682 -7.21249e-06 -0.000320776
0.0161217 -0.000170109 -0.000330765
0.0164003 -0.000344823 -0.000315778
0.0166842 -0.000506478 -0.000289505
0.0169531 -0.000647643 -0.000260681
0.0172005 -0.000766465 -0.000235465
0.0174196 -0.000862219 -0.000218996
0.0176014 -0.00093213 -0.000216734
0.0181324 -0.000970471 -0.00023591
0.0182669 -0.000963104 -0.0002883
0.0176951 -0.0010405 -0.000318686
0.0170109 -0.00109631 -0.0003193
0.0159615 -0.00111402 -0.00030349
0.0145084 -0.00108296 -0.000278459
0.0126311 -0.000999178 -0.000247143
0.0103423 -0.000861958 -0.000209912
0.00768532 -0.000673387 -0.000165502
0.00473551 -0.000438009 -0.000111436
0.00159943 -0.000161698 -4.43058e-05
0.000466451 -1.19821e-05 1.19002e-06
0.00139943 -3.79047e-05 3.40359e-06
0.00233241 -6.21125e-05 5.53418e-06
0.00326518 -8.28948e-05 7.61451e-06
0.00419761 -9.97576e-05 9.64576e-06
0.00512945 -0.000113157 1.16026e-05
0.00606037 -0.000124101 1.34311e-05
0.00698985 -0.000133831 1.50414e-05
0.00791718 -0.000143628 1.62959e-05
0.00884268 -0.000154691 1.69933e-05
0.00976279 -0.000168047 1.48591e-05
0.0106716 -0.000184392 1.34828e-05
0.0115665 -0.000204752 1.04546e-05
0.0124443 -0.000229569 5.01263e-06
0.0133004 -0.000258635 -3.87858e-06
0.014129 -0.000290708 -1.7663e-05
0.0149217 -0.000322684 -3.84109e-05
0.0156663 -0.00034757 -6.91437e-05
0.0163441 -0.000349966 -0.000114686
0.0174887 -0.000306088 -0.000183124
0.0179969 -0.000170789 -0.000288001
0.017854 -0.000340794 -0.000345403
0.018225 -0.000532075 -0.000354907
0.018631 -0.0007099 -0.000337434
0.0190376 -0.000860022 -0.000307955
0.019416 -0.000983964 -0.000275881
0.0197572 -0.00108619 -0.000247727
0.0200522 -0.00117076 -0.00022885
0.020288 -0.00123934 -0.000224921
0.0208639 -0.00129056 -0.000243514
0.0209847 -0.00131253 -0.000296918
0.0203656 -0.00139879 -0.000326295
0.0196393 -0.0014457 -0.000325116
0.0184944 -0.00144335 -0.000307054
0.0168754 -0.00138481 -0.000279789
0.0147481 -0.00126719 -0.000246567
0.0121188 -0.00108915 -0.00020801
0.00903273 -0.000851267 -0.000163079
0.00557827 -0.000556148 -0.000109436
0.0018864 -0.000207453 -4.35525e-05
0.000519379 -9.97411e-06 1.18579e-06
0.00155824 -3.24013e-05 3.41305e-06
0.00259714 -5.35707e-05 5.5674e-06
0.00363587 -7.19489e-05 7.67967e-06
0.00467429 -8.72632e-05 9.75025e-06
0.00571222 -0.00010016 1.17534e-05
0.00674935 -0.000111764 1.36351e-05
0.00778522 -0.000123366 1.53053e-05
0.00881917 -0.000136277 1.66265e-05
0.00985173 -0.000151763 1.73983e-05
0.0108792 -0.000170996 1.58213e-05
0.0118952 -0.000194929 1.44244e-05
0.0128972 -0.000225116 1.12985e-05
0.0138818 -0.000262764 5.64184e-06
0.0148447 -0.000308802 -3.64034e-06
0.0157793 -0.000363681 -1.80882e-05
0.0166765 -0.000426772 -3.99251e-05
0.0175219 -0.000494691 -7.24234e-05
0.0182915 -0.000557173 -0.000120852
0.0195755 -0.000595703 -0.000194098
0.0201185 -0.000558588 -0.000306953
0.0199887 -0.00078966 -0.000366636
0.0205108 -0.000984811 -0.00037529
0.0210651 -0.00113933 -0.000355189
0.0216077 -0.00125656 -0.000322509
0.0221052 -0.00134791 -0.000287256
0.0225493 -0.0014235 -0.000256219
0.0229303 -0.00149173 -0.0002349
0.0232326 -0.00155959 -0.000229123
0.0238557 -0.00163228 -0.00024674
0.0239755 -0.0017043 -0.000300502
0.0233366 -0.0017904 -0.000328423
0.0225841 -0.00181624 -0.000325521
0.0213493 -0.00178392 -0.000305569
0.019559 -0.00169152 -0.000276655
0.0171629 -0.00153645 -0.000242278
0.0141571 -0.00131578 -0.000203243
0.0105867 -0.00102782 -0.000158649
0.00655401 -0.000672838 -0.000106216
0.00221935 -0.00025227 -4.2308e-05
0.000575504 -7.47527e-06 1.15995e-06
0.00172665 -2.55067e-05 3.36785e-06
0.00287786 -4.28328e-05 5.51718e-06
0.00402891 -5.8123e-05 7.63449e-06
0.0051797 -7.13378e-05 9.71853e-06
0.00633007 -8.33089e-05 1.17433e-05
0.00747976 -9.52558e-05 1.36554e-05
0.00862837 -0.000108494 1.53662e-05
0.00977532 -0.000124339 1.67415e-05
0.0109214 -0.000144094 1.75852e-05
0.0120628 -0.000169056 1.65622e-05
0.0131927 -0.000200418 1.51835e-05
0.0143086 -0.000240281 1.20329e-05
0.0154075 -0.00029069 6.28051e-06
0.0164848 -0.000353916 -3.21211e-06
0.0175344 -0.000432576 -1.80623e-05
0.0185467 -0.000529655 -4.06248e-05
0.0195063 -0.000648116 -7.44025e-05
0.0203849 -0.00078937 -0.000125088
0.0218088 -0.000950956 -0.00020235
0.0224038 -0.00109008 -0.000322174
0.0223368 -0.00134882 -0.000383051
0.0230408 -0.00150343 -0.000390604
0.0237528 -0.00160069 -0.000367965
0.0244333 -0.00166354 -0.000332357
0.0250519 -0.00170956 -0.00029425
0.0256036 -0.00175134 -0.00026061
0.0260795 -0.0018001 -0.000236995
0.0264619 -0.00186878 -0.000229304
0.0271314 -0.00197208 -0.000245594
0.027274 -0.00211918 -0.000298956
0.026659 -0.00218803 -0.000324934
0.0258958 -0.0021793 -0.00032046
0.024576 -0.00210954 -0.0002991
0.0226092 -0.001981 -0.000269215
0.0199251 -0.00178932 -0.000234467
0.016504 -0.00152846 -0.000195776
0.0123867 -0.00119361 -0.000152315
0.00768945 -0.000782368 -0.000101825
0.00260777 -0.000294122 -4.05989e-05
0.00063549 -4.57993e-06 1.11335e-06
0.00190664 -1.7511e-05 3.27074e-06
0.00317788 -3.03743e-05 5.38827e-06
0.00444895 -4.20437e-05 7.48573e-06
0.00571977 -5.2704e-05 9.55936e-06
0.0069902 -6.33483e-05 1.15829e-05
0.00826005 -7.52626e-05 1.3504e-05
0.00952898 -8.97586e-05 1.52374e-05
0.0107965 -0.000108127 1.66542e-05
0.0120637 -0.000131681 1.75668e-05
0.0133266 -0.000161795 1.70885e-05
0.0145781 -0.000199847 1.57681e-05
0.0158158 -0.000248427 1.26693e-05
0.017037 -0.00031036 6.94889e-06
0.0182376 -0.000389229 -2.55411e-06
0.0194119 -0.00048993 -1.75063e-05
0.0205511 -0.000619645 -4.03571e-05
0.0216406 -0.000789908 -7.47967e-05
0.0226523 -0.0010207 -0.000126889
0.0242001 -0.00133964 -0.000207018
0.0248996 -0.00175626 -0.00033224
0.0249925 -0.00195962 -0.000392923
0.0258867 -0.002022 -0.000399245
0.0267423 -0.00203567 -0.000374427
0.0275478 -0.00203353 -0.000336478
0.0282814 -0.00203073 -0.000296149
0.0289419 -0.00203779 -0.000260443
0.0295208 -0.00206684 -0.000234867
0.029999 -0.00213675 -0.000225295
0.0307095 -0.002274 -0.000239871
0.0309138 -0.00251575 -0.000291849
0.0303843 -0.00254373 -0.000315427
0.0296213 -0.00249317 -0.000309648
0.0282207 -0.00238713 -0.000287495
0.0260743 -0.00222791 -0.000257422
0.0230857 -0.00200676 -0.000223144
0.0192103 -0.00171329 -0.000185626
0.0144771 -0.00133906 -0.000144073
0.00901543 -0.000878993 -9.62445e-05
0.00306275 -0.000330968 -3.84199e-05
0.000700122 -1.35345e-06 1.04671e-06
0.00210056 -8.61618e-06 3.12438e-06
0.00350111 -1.65408e-05 5.18573e-06
0.00490144 -2.41996e-05 7.24094e-06
0.00630148 -3.1967e-05 9.28269e-06
0.00770113 -4.09457e-05 1.12842e-05
0.00910021 -5.244e-05 1.31949e-05
0.0104985 -6.77216e-05 1.49338e-05
0.0118955 -8.80293e-05 1.63796e-05
0.0132928 -0.000114646 1.73567e-05
0.0146862 -0.000148967 1.74109e-05
0.0160681 -0.000192459 1.61892e-05
0.0174365 -0.000248062 1.32214e-05
0.018789 -0.000319162 7.6687e-06
0.0201222 -0.000410323 -1.62568e-06
0.0214314 -0.000528208 -1.63386e-05
0.0227097 -0.00068349 -3.8957e-05