# vtk DataFile Version 2.0
Presion
ASCII

DATASET STRUCTURED_GRID
DIMENSIONS   40   40   30

POINTS   48000   double
0.0125   0.0125   0.0166667
0.0375   0.0125   0.0166667
0.0625   0.0125   0.0166667
0.0875   0.0125   0.0166667
0.1125   0.0125   0.0166667
0.1375   0.0125   0.0166667
0.1625   0.0125   0.0166667
0.1875   0.0125   0.0166667
0.2125   0.0125   0.0166667
0.2375   0.0125   0.0166667
0.2625   0.0125   0.0166667
0.2875   0.0125   0.0166667
0.3125   0.0125   0.0166667
0.3375   0.0125   0.0166667
0.3625   0.0125   0.0166667
0.3875   0.0125   0.0166667
0.4125   0.0125   0.0166667
0.4375   0.0125   0.0166667
0.4625   0.0125   0.0166667
0.4875   0.0125   0.0166667
0.5125   0.0125   0.0166667
0.5375   0.0125   0.0166667
0.5625   0.0125   0.0166667
0.5875   0.0125   0.0166667
0.6125   0.0125   0.0166667
0.6375   0.0125   0.0166667
0.6625   0.0125   0.0166667
0.6875   0.0125   0.0166667
0.7125   0.0125   0.0166667
0.7375   0.0125   0.0166667
0.7625   0.0125   0.0166667
0.7875   0.0125   0.0166667
0.8125   0.0125   0.0166667
0.8375   0.0125   0.0166667
0.8625   0.0125   0.0166667
0.8875   0.0125   0.0166667
0.9125   0.0125   0.0166667
0.9375   0.0125   0.0166667
0.9625   0.0125   0.0166667
0.9875   0.0125   0.0166667
0.0125   0.0375   0.0166667
0.0375   0.0375   0.0166667
0.0625   0.0375   0.0166667
0.0875   0.0375   0.0166667
0.1125   0.0375   0.0166667
0.1375   0.0375   0.0166667
0.1625   0.0375   0.0166667
0.1875   0.0375   0.0166667
0.2125   0.0375   0.0166667
0.2375   0.0375   0.0166667
0.2625   0.0375   0.0166667
0.2875   0.0375   0.0166667
0.3125   0.0375   0.0166667
0.3375   0.0375   0.0166667
0.3625   0.0375   0.0166667
0.3875   0.0375   0.0166667
0.4125   0.0375   0.0166667
0.4375   0.0375   0.0166667
0.4625   0.0375   0.0166667
0.4875   0.0375   0.0166667
0.5125   0.0375   0.0166667
0.5375   0.0375   0.0166667
0.5625   0.0375   0.0166667
0.5875   0.0375   0.0166667
0.6125   0.0375   0.0166667
0.6375   0.0375   0.0166667
0.6625   0.0375   0.0166667
0.6875   0.0375   0.0166667
0.7125   0.0375   0.0166667
0.7375   0.0375   0.0166667
0.7625   0.0375   0.0166667
0.7875   0.0375   0.0166667
0.8125   0.0375   0.0166667
0.8375   0.0375   0.0166667
0.8625   0.0375   0.0166667
0.8875   0.0375   0.0166667
0.9125   0.0375   0.0166667
0.9375   0.0375   0.0166667
0.9625   0.0375   0.0166667
0.9875   0.0375   0.0166667
0.0125   0.0625   0.0166667
0.0375   0.0625   0.0166667
0.0625   0.0625   0.0166667
0.0875   0.0625   0.0166667
0.1125   0.0625   0.0166667
0.1375   0.0625   0.0166667
0.1625   0.0625   0.0166667
0.1875   0.0625   0.0166667
0.2125   0.0625   0.0166667
0.2375   0.0625   0.0166667
0.2625   0.0625   0.0166667
0.2875   0.0625   0.0166667
0.3125   0.0625   0.0166667
0.3375   0.0625   0.0166667
0.3625   0.0625   0.0166667
0.3875   0.0625   0.0166667
0.4125   0.0625   0.0166667
0.4375   0.0625   0.0166667
0.4625   0.0625   0.0166667
0.4875   0.0625   0.0166667
0.5125   0.0625   0.0166667
0.5375   0.0625   0.0166667
0.5625   0.0625   0.0166667
0.5875   0.0625   0.0166667
0.6125   0.0625   0.0166667
0.6375   0.0625   0.0166667
0.6625   0.0625   0.0166667
0.6875   0.0625   0.0166667
0.7125   0.0625   0.0166667
0.7375   0.0625   0.0166667
0.7625   0.0625   0.0166667
0.7875   0.0625   0.0166667
0.8125   0.0625   0.0166667
0.8375   0.0625   0.0166667
0.8625   0.0625   0.0166667
0.8875   0.0625   0.0166667
0.9125   0.0625   0.0166667
0.9375   0.0625   0.0166667
0.9625   0.0625   0.0166667
0.9875   0.0625   0.0166667
0.0125   0.0875   0.0166667
0.0375   0.0875   0.0166667
0.0625   0.0875   0.0166667
0.0875   0.0875   0.0166667
0.1125   0.0875   0.0166667
0.1375   0.0875   0.0166667
0.1625   0.0875   0.0166667
0.1875   0.0875   0.0166667
0.2125   0.0875   0.0166667
0.2375   0.0875   0.0166667
0.2625   0.0875   0.0166667
0.2875   0.0875   0.0166667
0.3125   0.0875   0.0166667
0.3375   0.0875   0.0166667
0.3625   0.0875   0.0166667
0.3875   0.0875   0.0166667
0.4125   0.0875   0.0166667
0.4375   0.0875   0.0166667
0.4625   0.0875   0.0166667
0.4875   0.0875   0.0166667
0.5125   0.0875   0.0166667
0.5375   0.0875   0.0166667
0.5625   0.0875   0.0166667
0.5875   0.0875   0.0166667
0.6125   0.0875   0.0166667
0.6375   0.0875   0.0166667
0.6625   0.0875   0.0166667
0.6875   0.0875   0.0166667
0.7125   0.0875   0.0166667
0.7375   0.0875   0.0166667
0.7625   0.0875   0.0166667
0.7875   0.0875   0.0166667
0.8125   0.0875   0.0166667
0.8375   0.0875   0.0166667
0.8625   0.0875   0.0166667
0.8875   0.0875   0.0166667
0.9125   0.0875   0.0166667
0.9375   0.0875   0.0166667
0.9625   0.0875   0.0166667
0.9875   0.0875   0.0166667
0.0125   0.1125   0.0166667
0.0375   0.1125   0.0166667
0.0625   0.1125   0.0166667
0.0875   0.1125   0.0166667
0.1125   0.1125   0.0166667
0.1375   0.1125   0.0166667
0.1625   0.1125   0.0166667
0.1875   0.1125   0.0166667
0.2125   0.1125   0.0166667
0.2375   0.1125   0.0166667
0.2625   0.1125   0.0166667
0.2875   0.1125   0.0166667
0.3125   0.1125   0.0166667
0.3375   0.1125   0.0166667
0.3625   0.1125   0.0166667
0.3875   0.1125   0.0166667
0.4125   0.1125   0.0166667
0.4375   0.1125   0.0166667
0.4625   0.1125   0.0166667
0.4875   0.1125   0.0166667
0.5125   0.1125   0.0166667
0.5375   0.1125   0.0166667
0.5625   0.1125   0.0166667
0.5875   0.1125   0.0166667
0.6125   0.1125   0.0166667
0.6375   0.1125   0.0166667
0.6625   0.1125   0.0166667
0.6875   0.1125   0.0166667
0.7125   0.1125   0.0166667
0.7375   0.1125   0.0166667
0.7625   0.1125   0.0166667
0.7875   0.1125   0.0166667
0.8125   0.1125   0.0166667
0.8375   0.1125   0.0166667
0.8625   0.1125   0.0166667
0.8875   0.1125   0.0166667
0.9125   0.1125   0.0166667
0.9375   0.1125   0.0166667
0.9625   0.1125   0.0166667
0.9875   0.1125   0.0166667
0.0125   0.1375   0.0166667
0.0375   0.1375   0.0166667
0.0625   0.1375   0.0166667
0.0875   0.1375   0.0166667
0.1125   0.1375   0.0166667
0.1375   0.1375   0.0166667
0.1625   0.1375   0.0166667
0.1875   0.1375   0.0166667
0.2125   0.1375   0.0166667
0.2375   0.1375   0.0166667
0.2625   0.1375   0.0166667
0.2875   0.1375   0.0166667
0.3125   0.1375   0.0166667
0.3375   0.1375   0.0166667
0.3625   0.1375   0.0166667
0.3875   0.1375   0.0166667
0.4125   0.1375   0.0166667
0.4375   0.1375   0.0166667
0.4625   0.1375   0.0166667
0.4875   0.1375   0.0166667
0.5125   0.1375   0.0166667
0.5375   0.1375   0.0166667
0.5625   0.1375   0.0166667
0.5875   0.1375   0.0166667
0.6125   0.1375   0.0166667
0.6375   0.1375   0.0166667
0.6625   0.1375   0.0166667
0.6875   0.1375   0.0166667
0.7125   0.1375   0.0166667
0.7375   0.1375   0.0166667
0.7625   0.1375   0.0166667
0.7875   0.1375   0.0166667
0.8125   0.1375   0.0166667
0.8375   0.1375   0.0166667
0.8625   0.1375   0.0166667
0.8875   0.1375   0.0166667
0.9125   0.1375   0.0166667
0.9375   0.1375   0.0166667
0.9625   0.1375   0.0166667
0.9875   0.1375   0.0166667
0.0125   0.1625   0.0166667
0.0375   0.1625   0.0166667
0.0625   0.1625   0.0166667
0.0875   0.1625   0.0166667
0.1125   0.1625   0.0166667
0.1375   0.1625   0.0166667
0.1625   0.1625   0.0166667
0.1875   0.1625   0.0166667
0.2125   0.1625   0.0166667
0.2375   0.1625   0.0166667
0.2625   0.1625   0.0166667
0.2875   0.1625   0.0166667
0.3125   0.1625   0.0166667
0.3375   0.1625   0.0166667
0.3625   0.1625   0.0166667
0.3875   0.1625   0.0166667
0.4125   0.1625   0.0166667
0.4375   0.1625   0.0166667
0.4625   0.1625   0.0166667
0.4875   0.1625   0.0166667
0.5125   0.1625   0.0166667
0.5375   0.1625   0.0166667
0.5625   0.1625   0.0166667
0.5875   0.1625   0.0166667
0.6125   0.1625   0.0166667
0.6375   0.1625   0.0166667
0.6625   0.1625   0.0166667
0.6875   0.1625   0.0166667
0.7125   0.1625   0.0166667
0.7375   0.1625   0.0166667
0.7625   0.1625   0.0166667
0.7875   0.1625   0.0166667
0.8125   0.1625   0.0166667
0.8375   0.1625   0.0166667
0.8625   0.1625   0.0166667
0.8875   0.1625   0.0166667
0.9125   0.1625   0.0166667
0.9375   0.1625   0.0166667
0.9625   0.1625   0.0166667
0.9875   0.1625   0.0166667
0.0125   0.1875   0.0166667
0.0375   0.1875   0.0166667
0.0625   0.1875   0.0166667
0.0875   0.1875   0.0166667
0.1125   0.1875   0.0166667
0.1375   0.1875   0.0166667
0.1625   0.1875   0.0166667
0.1875   0.1875   0.0166667
0.2125   0.1875   0.0166667
0.2375   0.1875   0.0166667
0.2625   0.1875   0.0166667
0.2875   0.1875   0.0166667
0.3125   0.1875   0.0166667
0.3375   0.1875   0.0166667
0.3625   0.1875   0.0166667
0.3875   0.1875   0.0166667
0.4125   0.1875   0.0166667
0.4375   0.1875   0.0166667
0.4625   0.1875   0.0166667
0.4875   0.1875   0.0166667
0.5125   0.1875   0.0166667
0.5375   0.1875   0.0166667
0.5625   0.1875   0.0166667
0.5875   0.1875   0.0166667
0.6125   0.1875   0.0166667
0.6375   0.1875   0.0166667
0.6625   0.1875   0.0166667
0.6875   0.1875   0.0166667
0.7125   0.1875   0.0166667
0.7375   0.1875   0.0166667
0.7625   0.1875   0.0166667
0.7875   0.1875   0.0166667
0.8125   0.1875   0.0166667
0.8375   0.1875   0.0166667
0.8625   0.1875   0.0166667
0.8875   0.1875   0.0166667
0.9125   0.1875   0.0166667
0.9375   0.1875   0.0166667
0.9625   0.1875   0.0166667
0.9875   0.1875   0.0166667
0.0125   0.2125   0.0166667
0.0375   0.2125   0.0166667
0.0625   0.2125   0.0166667
0.0875   0.2125   0.0166667
0.1125   0.2125   0.0166667
0.1375   0.2125   0.0166667
0.1625   0.2125   0.0166667
0.1875   0.2125   0.0166667
0.2125   0.2125   0.0166667
0.2375   0.2125   0.0166667
0.2625   0.2125   0.0166667
0.2875   0.2125   0.0166667
0.3125   0.2125   0.0166667
0.3375   0.2125   0.0166667
0.3625   0.2125   0.0166667
0.3875   0.2125   0.0166667
0.4125   0.2125   0.0166667
0.4375   0.2125   0.0166667
0.4625   0.2125   0.0166667
0.4875   0.2125   0.0166667
0.5125   0.2125   0.0166667
0.5375   0.2125   0.0166667
0.5625   0.2125   0.0166667
0.5875   0.2125   0.0166667
0.6125   0.2125   0.0166667
0.6375   0.2125   0.0166667
0.6625   0.2125   0.0166667
0.6875   0.2125   0.0166667
0.7125   0.2125   0.0166667
0.7375   0.2125   0.0166667
0.7625   0.2125   0.0166667
0.7875   0.2125   0.0166667
[...]
POINT_DATA   48000
SCALARS Presion double
LOOKUP_TABLE   Presion

0 0 0 0 0 0 0 0 0 0 0 0 0 0 0 0 0 0 0 0 0 0 0 0 0 0 0 0 0 0 0 -0.000198727 -0.00102687 -4.10736e-05 -0.00048358 -0.00377023 -0.000199659 -0.000980536 -3.17799e-05 0 0 0 0 0 0 0 0 0 0 0 0 0 0 0 0 0 0 0 0 0 0 0 0 0 0 0 0 0 0 0 0 -0.000220348 -0.00118147 -6.58132e-05 -0.000572093 -0.00463106 -0.000221743 -0.00111251 -5.43377e-05 0 0 0 0 0 0 0 0 0 0 0 0 0 0 0 0 0 0 0 0 0 0 0 0 0 0 0 0 0 0 0 0 -0.000243113 -0.00137343 -8.89976e-05 -0.000650305 -0.00562929 -0.000244991 -0.00127112 -7.70587e-05 0 0 0 0 0 0 0 0 0 0 0 0 0 0 0 0 0 0 0 0 0 0 0 0 0 0 0 0 0 0 0 0 -0.000267299 -0.00161578 -0.000109314 -0.000709042 -0.00653447 -0.000269648 -0.0014635 -9.92098e-05 0 0 0 0 0 0 0 0 0 0 0 0 0 0 0 0 0 0 0 0 0 0 0 0 0 0 0 0 0 0 0 0 -0.000293236 -0.00192766 -0.00012672 -0.000747736 -0.00654189 -0.000295994 -0.00169895 -0.000120423 0 0 0 0 0 0 0 0 0 0 0 0 0 0 0 0 0 0 0 0 0 0 0 0 0 0 0 0 0 0 0 0 -0.000321315 -0.00233788 -0.000142399 -0.000775046 -0.00365617 -0.000324366 -0.00198932 -0.000140769 0 0 0 0 0 0 0 0 0 0 0 0 0 0 0 0 0 0 0 0 0 0 0 0 0 0 0 0 0 0 0 0 -0.000352005 -0.00289125 -0.000158027 -0.000808248 -6.64889e-06 -0.000355162 -0.00234886 -0.000160679 0 0 0 0 0 0 0 0 0 0 0 0 0 0 0 0 0 0 0 0 0 0 0 0 0 0 0 0 0 0 0 0 -0.000385872 -0.00365963 -0.000174795 -0.000867285 -2.48402e-05 -0.000388874 -0.00279272 -0.000180771 0 0 0 0 0 0 0 0 0 0 0 0 0 0 0 0 0 0 0 0 0 0 0 0 0 0 0 0 0 0 0 0 -0.000423604 -0.00476159 -0.000192817 -0.000967612 -4.31877e-05 -0.0004261 -0.00333145 -0.000201662 0 0 0 0 0 0 0 0 0 0 0 0 0 0 0 0 0 0 0 0 0 0 0 0 0 0 0 0 0 0 0 0 -0.000466046 -0.00639615 -0.000211358 -0.00111543 -6.1679e-05 -0.000467577 -0.00395489 -0.000223844 0 0 0 0 0 0 0 0 0 0 0 0 0 0 0 0 0 0 0 0 0 0 0 0 0 0 0 0 0 0 0 0 -0.000514241 -0.00889023 -0.000229835 -0.00130908 -8.03223e-05 -0.000514213 -0.00458936 -0.000247641 0 0 0 0 0 0 0 0 0 0 0 0 0 0 0 0 0 0 0 0 0 0 0 0 0 0 0 0 0 0 0 0 -0.000569494 -0.0126955 -0.000248486 -0.00154689 -9.9147e-05 -0.000567132 -0.00499431 -0.00027322 0 0 0 0 0 0 0 0 0 0 0 0 0 0 0 0 0 0 0 0 0 0 0 0 0 0 0 0 0 0 0 0 -0.000633452 -0.0178172 -0.000269996 -0.00183625 -0.000118209 -0.000627731 -0.00456264 -0.000300669 0 0 0 0 0 0 0 0 0 0 0 0 0 0 0 0 0 0 0 0 0 0 0 0 0 0 0 0 0 0 0 0 -0.000708227 -0.0191815 -0.000298744 -0.00219946 -0.000137593 -0.000697757 -0.00221077 -0.000330112 0 0 0 0 0 0 0 0 0 0 0 0 0 0 0 0 0 0 0 0 0 0 0 0 0 0 0 0 0 0 0 0 -0.000796569 -8.09142e-06 -0.000339555 -0.00267577 -0.000157413 -0.000779418 8.48548e-06 -0.000361798 0 0 0 0 0 0 0 0 0 0 0 0 0 0 0 0 0 0 0 0 0 0 0 0 0 0 0 0 0 0 0 0 -0.000902115 -2.64116e-05 -0.000394174 -0.00332066 -0.000177812 -0.00087553 -1.20047e-05 -0.000396103 0 0 0 0 0 0 0 0 0 0 0 0 0 0 0 0 0 0 0 0 0 0 0 0 0 0 0 0 0 0 0 0 -0.00102977 -4.4864e-05 -0.000459163 -0.0042043 -0.000198958 -0.000989715 -3.43603e-05 -0.000433486 0 0 0 0 0 0 0 0 0 0 0 0 0 0 0 0 0 0 0 0 0 0 0 0 0 0 0 0 0 0 0 0 -0.00118628 -6.34239e-05 -0.000527593 -0.00540885 -0.000221044 -0.00112668 -5.77239e-05 -0.000474519 0 0 0 0 0 0 0 0 0 0 0 0 0 0 0 0 0 0 0 0 0 0 0 0 0 0 0 0 0 0 0 0 -0.00138116 -8.20907e-05 -0.000592228 -0.00700204 -0.000244289 -0.00129259 -8.11465e-05 -0.000519995 0 0 0 0 0 0 0 0 0 0 0 0 0 0 0 0 0 0 0 0 0 0 0 0 0 0 0 0 0 0 0 0 -0.00162811 -0.000100887 -0.000648311 -0.00888682 -0.000268941 -0.00149554 -0.000103859 -0.00057103 0 0 0 0 0 0 0 0 0 0 0 0 0 0 0 0 0 0 0 0 0 0 0 0 0 0 0 0 0 0 0 0 -0.00194756 -0.000119864 -0.000696422 -0.0101763 -0.000295288 -0.00174618 -0.000125478 -0.000629105 0 0 0 0 0 0 0 0 0 0 0 0 0 0 0 0 0 0 0 0 0 0 0 0 0 0 0 0 0 0 0 0 -0.00237093 -0.000139101 -0.000742872 -0.00720548 -0.000323672 -0.0020584 -0.000146069 -0.000696063 0 0 0 0 0 0 0 0 0 0 0 0 0 0 0 0 0 0 0 0 0 0 0 0 0 0 0 0 0 0 0 0 -0.00294855 -0.00015871 -0.000799134 7.58139e-06 -0.000354506 -0.00244973 -0.000166068 -0.000774075 0 0 0 0 0 0 0 0 0 0 0 0 0 0 0 0 0 0 0 0 0 0 0 0 0 0 0 0 0 0 0 0 -0.00376475 -0.000178835 -0.000878194 -1.43043e-05 -0.000388294 -0.00294077 -0.000186093 -0.000865639 0 0 0 0 0 0 0 0 0 0 0 0 0 0 0 0 0 0 0 0 0 0 0 0 0 0 0 0 0 0 0 0 -0.00496822 -0.000199647 -0.000990604 -3.89218e-05 -0.000425655 -0.00355085 -0.000206755 -0.000973683 0 0 0 0 0 0 0 0 0 0 0 0 0 0 0 0 0 0 0 0 0 0 0 0 0 0 0 0 0 0 0 0 -0.00683573 -0.000221352 -0.00114229 -6.43155e-05 -0.000467352 -0.00428285 -0.000228544 -0.00110179 0 0 0 0 0 0 0 0 0 0 0 0 0 0 0 0 0 0 0 0 0 0 0 0 0 0 0 0 0 0 0 0 -0.00990719 -0.000244187 -0.00133614 -8.84408e-05 -0.000514326 -0.00507786 -0.00025179 -0.00125459 0 0 0 0 0 0 0 0 0 0 0 0 0 0 0 0 0 0 0 0 0 0 0 0 0 0 0 0 0 0 0 0 -0.0152426 -0.00026843 -0.00157715 -0.000109906 -0.000567742 -0.00569246 -0.00027669 -0.00143816 0 0 0 0 0 0 0 0 0 0 0 0 0 0 0 0 0 0 0 0 0 0 0 0 0 0 0 0 0 0 0 0 -0.0245368 -0.000294408 -0.00187846 -0.000128493 -0.000629052 -0.00542145 -0.000303385 -0.00166044 0 0 0 0 0 0 0 0 0 0 0 0 0 0 0 0 0 0 0 0 0 0 0 0 0 0 0 0 0 0 0 0 -0.0353259 -0.000322508 -0.00226607 -0.000145157 -0.000700081 -0.00279967 -0.00033207 -0.00193132 0 0 0 0 0 0 0 0 0 0 0 0 0 0 0 0 0 0 0 0 0 0 0 0 0 0 0 0 0 0 0 0 -8.67212e-06 -0.000353193 -0.00278245 -0.000161429 -0.000783148 -6.89701e-06 -0.000363068 -0.00226213 0 0 0 0 0 0 0 0 0 0 0 0 0 0 0 0 0 0 0 0 0 0 0 0 0 0 0 0 0 0 0 0 -2.68785e-05 -0.000387025 -0.00349099 -0.000178562 -0.000881234 -2.5315e-05 -0.000396815 -0.00266351 0 0 0 0 0 0 0 0 0 0 0 0 0 0 0 0 0 0 0 0 0 0 0 0 0 0 0 0 0 0 0 0 -4.51742e-05 -0.000424686 -0.00448367 -0.000196991 -0.000998216 -4.38365e-05 -0.000433794 -0.0031392 0 0 0 0 0 0 0 0 0 0 0 0 0 0 0 0 0 0 0 0 0 0 0 0 0 0 0 0 0 0 0 0 -6.35491e-05 -0.000467012 -0.00589302 -0.000216433 -0.0011392 -6.24587e-05 -0.000474574 -0.00366985 0 0 0 0 0 0 0 0 0 0 0 0 0 0 0 0 0 0 0 0 0 0 0 0 0 0 0 0 0 0 0 0 -8.20196e-05 -0.000515034 -0.00789062 -0.00023656 -0.00131095 -8.12014e-05 -0.000519938 -0.00417398 0 0 0 0 0 0 0 0 0 0 0 0 0 0 0 0 0 0 0 0 0 0 0 0 0 0 0 0 0 0 0 0 -0.000100624 -0.000570041 -0.0105714 -0.000257589 -0.00152256 -0.000100106 -0.000571009 -0.00442249 0 0 0 0 0 0 0 0 0 0 0 0 0 0 0 0 0 0 0 0 0 0 0 0 0 0 0 0 0 0 0 0 -0.000119424 -0.000633657 -0.0132497 -0.000281189 -0.00178625 -0.000119236 -0.000629323 -0.00389788 0 0 0 0 0 0 0 0 0 0 0 0 0 0 0 0 0 0 0 0 0 0 0 0 0 0 0 0 0 0 0 0 -0.000138506 -0.000707959 -0.0112251 -0.000310288 -0.00211848 -0.000138683 -0.000696825 -0.00179345 0 0 0 0 0 0 0 0 0 0 0 0 0 0 0 0 0 0 0 0 0 0 0 0 0 0 0 0 0 0 0 0 -0.000157984 -0.00079564 6.36748e-06 -0.000348228 -0.00254105 -0.000158563 -0.000775844 6.65219e-06 0 0 0 0 0 0 0 0 0 0 0 0 0 0 0 0 0 0 0 0 0 0 0 0 0 0 0 0 0 0 0 0 -0.000177998 -0.000900258 -1.65836e-05 -0.00039629 -0.00308169 -0.000179017 -0.000869091 -1.25107e-05 0 0 0 0 0 0 0 0 0 0 0 0 0 0 0 0 0 0 0 0 0 0 0 0 0 0 0 0 0 0 0 0 -0.000293258 -0.00192724 -0.00012311 -0.000674041 -0.00654255 -0.000296608 -0.00169757 -0.00011853 0 0 0 0 0 0 0 0 0 0 0 0 0 0 0 0 0 0 0 0 0 0 0 0 0 0 0 0 0 0 0 0 -0.000321353 -0.00233744 -0.000134373 -0.00072684 -0.00365668 -0.000324952 -0.00198714 -0.000138882 0 0 0 0 0 0 0 0 0 0 0 0 0 0 0 0 0 0 0 0 0 0 0 0 0 0 0 0 0 0 0 0 -0.000352064 -0.00289081 -0.000146218 -0.000790798 -7.46875e-06 -0.000355705 -0.00234578 -0.000159037 0 0 0 0 0 0 0 0 0 0 0 0 0 0 0 0 0 0 0 0 0 0 0 0 0 0 0 0 0 0 0 0 -0.000385957 -0.0036592 -0.000159976 -0.000875845 -2.56469e-05 -0.00038936 -0.00278888 -0.000179465 0 0 0 0 0 0 0 0 0 0 0 0 0 0 0 0 0 0 0 0 0 0 0 0 0 0 0 0 0 0 0 0 -0.000423719 -0.0047612 -0.000175716 -0.000990243 -4.39237e-05 -0.000426519 -0.00332715 -0.000200664 0 0 0 0 0 0 0 0 0 0 0 0 0 0 0 0 0 0 0 0 0 0 0 0 0 0 0 0 0 0 0 0 -0.000466195 -0.00639582 -0.000189267 -0.00113927 -6.23025e-05 -0.000467922 -0.00395052 -0.000223059 0 0 0 0 0 0 0 0 0 0 0 0 0 0 0 0 0 0 0 0 0 0 0 0 0 0 0 0 0 0 0 0 -0.000514425 -0.00888997 -0.000201209 -0.00132663 -8.08103e-05 -0.000514483 -0.00458528 -0.000246953 0 0 0 0 0 0 0 0 0 0 0 0 0 0 0 0 0 0 0 0 0 0 0 0 0 0 0 0 0 0 0 0 -0.000569711 -0.0126953 -0.000209127 -0.00155839 -9.9495e-05 -0.000567327 -0.00499083 -0.00027253 0 0 0 0 0 0 0 0 0 0 0 0 0 0 0 0 0 0 0 0 0 0 0 0 0 0 0 0 0 0 0 0 -0.000633701 -0.0178171 -0.000222503 -0.00184727 -0.000118427 -0.000627853 -0.00455982 -0.000299903 0 0 0 0 0 0 0 0 0 0 0 0 0 0 0 0 0 0 0 0 0 0 0 0 0 0 0 0 0 0 0 0 -0.000708506 -0.0191815 -0.000250764 -0.00221605 -0.000137698 -0.000697808 -0.00220826 -0.000329203 0 0 0 0 0 0 0 0 0 0 0 0 0 0 0 0 0 0 0 0 0 0 0 0 0 0 0 0 0 0 0 0 -0.000796875 -7.47393e-06 -0.000306921 -0.00270003 -0.000157427 -0.000779399 1.14689e-05 -0.000360665 0 0 0 0 0 0 0 0 0 0 0 0 0 0 0 0 0 0 0 0 0 0 0 0 0 0 0 0 0 0 0 0 -0.000902447 -2.58635e-05 -0.000393347 -0.00334939 -0.000177754 -0.000875436 -9.62537e-06 -0.000394668 0 0 0 0 0 0 0 0 0 0 0 0 0 0 0 0 0 0 0 0 0 0 0 0 0 0 0 0 0 0 0 0 -0.00103013 -4.44415e-05 -0.00050101 -0.00423155 -0.000198843 -0.00098954 -3.31107e-05 -0.000431742 0 0 0 0 0 0 0 0 0 0 0 0 0 0 0 0 0 0 0 0 0 0 0 0 0 0 0 0 0 0 0 0 -0.00118666 -6.31593e-05 -0.000610888 -0.00543004 -0.000220882 -0.00112642 -5.77942e-05 -0.000472587 0 0 0 0 0 0 0 0 0 0 0 0 0 0 0 0 0 0 0 0 0 0 0 0 0 0 0 0 0 0 0 0 -0.00138156 -8.19895e-05 -0.00070535 -0.00701593 -0.000244088 -0.00129223 -8.23606e-05 -0.000518112 0 0 0 0 0 0 0 0 0 0 0 0 0 0 0 0 0 0 0 0 0 0 0 0 0 0 0 0 0 0 0 0 -0.00162853 -0.000100931 -0.000769242 -0.00889471 -0.00026871 -0.00149508 -0.000105765 -0.00056947 0 0 0 0 0 0 0 0 0 0 0 0 0 0 0 0 0 0 0 0 0 0 0 0 0 0 0 0 0 0 0 0 -0.00194799 -0.00012002 -0.000802931 -0.0101804 -0.000295037 -0.00174563 -0.000127523 -0.00062808 0 0 0 0 0 0 0 0 0 0 0 0 0 0 0 0 0 0 0 0 0 0 0 0 0 0 0 0 0 0 0 0 -0.00237136 -0.00013933 -0.000814418 -0.00720786 -0.000323414 -0.00205775 -0.000147794 -0.000695631 0 0 0 0 0 0 0 0 0 0 0 0 0 0 0 0 0 0 0 0 0 0 0 0 0 0 0 0 0 0 0 0 -0.00294897 -0.000158978 -0.000828535 4.62937e-06 -0.000354255 -0.00244902 -0.000167225 -0.00077412 0 0 0 0 0 0 0 0 0 0 0 0 0 0 0 0 0 0 0 0 0 0 0 0 0 0 0 0 0 0 0 0 -0.00376515 -0.000179114 -0.000870695 -1.60951e-05 -0.000388066 -0.00294003 -0.000186657 -0.000865928 0 0 0 0 0 0 0 0 0 0 0 0 0 0 0 0 0 0 0 0 0 0 0 0 0 0 0 0 0 0 0 0 -0.00496858 -0.000199922 -0.000962365 -3.88197e-05 -0.000425463 -0.00355011 -0.000206843 -0.000973978 0 0 0 0 0 0 0 0 0 0 0 0 0 0 0 0 0 0 0 0 0 0 0 0 0 0 0 0 0 0 0 0 -0.00683604 -0.000221615 -0.00111098 -6.23303e-05 -0.000467205 -0.00428216 -0.000228317 -0.00110198 0 0 0 0 0 0 0 0 0 0 0 0 0 0 0 0 0 0 0 0 0 0 0 0 0 0 0 0 0 0 0 0 -0.00990744 -0.000244437 -0.00131248 -8.53426e-05 -0.00051423 -0.00507726 -0.000251393 -0.00125474 0 0 0 0 0 0 0 0 0 0 0 0 0 0 0 0 0 0 0 0 0 0 0 0 0 0 0 0 0 0 0 0 -0.0152427 -0.000268664 -0.00156128 -0.000106927 -0.000567699 -0.00569198 -0.000276242 -0.00143851 0 0 0 0 0 0 0 0 0 0 0 0 0 0 0 0 0 0 0 0 0 0 0 0 0 0 0 0 0 0 0 0 -0.0245369 -0.000294622 -0.00186307 -0.000126808 -0.000629063 -0.0054211 -0.000303023 -0.00166129 0 0 0 0 0 0 0 0 0 0 0 0 0 0 0 0 0 0 0 0 0 0 0 0 0 0 0 0 0 0 0 0 -0.035326 -0.000322694 -0.00224312 -0.000145402 -0.000700148 -0.00279937 -0.000332028 -0.00193293 0 0 0 0 0 0 0 0 0 0 0 0 0 0 0 0 0 0 0 0 0 0 0 0 0 0 0 0 0 0 0 0 -8.864e-06 -0.000353341 -0.0027493 -0.000163549 -0.000783274 -5.85985e-06 -0.000363723 -0.00226463 0 0 0 0 0 0 0 0 0 0 0 0 0 0 0 0 0 0 0 0 0 0 0 0 0 0 0 0 0 0 0 0 -2.70682e-05 -0.000387124 -0.00345228 -0.000182099 -0.000881427 -2.43821e-05 -0.000398566 -0.00266682 0 0 0 0 0 0 0 0 0 0 0 0 0 0 0 0 0 0 0 0 0 0 0 0 0 0 0 0 0 0 0 0 -4.53482e-05 -0.000424727 -0.00444764 -0.000201608 -0.000998488 -4.30842e-05 -0.000436828 -0.00314306 0 0 0 0 0 0 0 0 0 0 0 0 0 0 0 0 0 0 0 0 0 0 0 0 0 0 0 0 0 0 0 0 -6.3698e-05 -0.000466989 -0.00586578 -0.000222313 -0.00113956 -6.19388e-05 -0.000478667 -0.00367394 0 0 0 0 0 0 0 0 0 0 0 0 0 0 0 0 0 0 0 0 0 0 0 0 0 0 0 0 0 0 0 0 -8.21391e-05 -0.000514947 -0.00787351 -0.000244319 -0.00131141 -8.09369e-05 -0.000524447 -0.00417794 0 0 0 0 0 0 0 0 0 0 0 0 0 0 0 0 0 0 0 0 0 0 0 0 0 0 0 0 0 0 0 0 -0.000100714 -0.000569892 -0.0105623 -0.000267839 -0.00152313 -0.000100092 -0.00057506 -0.00442603 0 0 0 0 0 0 0 0 0 0 0 0 0 0 0 0 0 0 0 0 0 0 0 0 0 0 0 0 0 0 0 0 -0.000119489 -0.000633451 -0.0132454 -0.000293447 -0.00178694 -0.000119447 -0.000632112 -0.00390089 0 0 0 0 0 0 0 0 0 0 0 0 0 0 0 0 0 0 0 0 0 0 0 0 0 0 0 0 0 0 0 0 -0.000138552 -0.000707702 -0.0112228 -0.000322179 -0.00211926 -0.00013908 -0.000697915 -0.00179625 0 0 0 0 0 0 0 0 0 0 0 0 0 0 0 0 0 0 0 0 0 0 0 0 0 0 0 0 0 0 0 0 -0.000158017 -0.000795339 6.65308e-06 -0.00035528 -0.00254191 -0.000159102 -0.000775328 3.73304e-06 0 0 0 0 0 0 0 0 0 0 0 0 0 0 0 0 0 0 0 0 0 0 0 0 0 0 0 0 0 0 0 0 -0.000178023 -0.000899912 -1.73543e-05 -0.000393485 -0.00308258 -0.000179661 -0.000867526 -1.50079e-05 0 0 0 0 0 0 0 0 0 0 0 0 0 0 0 0 0 0 0 0 0 0 0 0 0 0 0 0 0 0 0 0 -0.000198739 -0.00102619 -4.47572e-05 -0.000436524 -0.00377243 -0.000200927 -0.000977898 -3.47695e-05 0 0 0 0 0 0 0 0 0 0 0 0 0 0 0 0 0 0 0 0 0 0 0 0 0 0 0 0 0 0 0 0 -0.000220365 -0.00118071 -7.1333e-05 -0.000483391 -0.00463313 -0.000223098 -0.00111024 -5.52084e-05 0 0 0 0 0 0 0 0 0 0 0 0 0 0 0 0 0 0 0 0 0 0 0 0 0 0 0 0 0 0 0 0 -0.000243137 -0.00137258 -9.28574e-05 -0.000533194 -0.0056311 -0.000246395 -0.00126931 -7.59228e-05 0 0 0 0 0 0 0 0 0 0 0 0 0 0 0 0 0 0 0 0 0 0 0 0 0 0 0 0 0 0 0 0 -0.000267336 -0.00161485 -0.00010698 -0.000585992 -0.00653592 -0.000271063 -0.00146159 -9.65784e-05 0 0 0 0 0 0 0 0 0 0 0 0 0 0 0 0 0 0 0 0 0 0 0 0 0 0 0 0 0 0 0 0 -0.000423809 -0.00476061 -0.000145797 -0.00100337 -4.44413e-05 -0.000427048 -0.00332222 -0.000199642 0 0 0 0 0 0 0 0 0 0 0 0 0 0 0 0 0 0 0 0 0 0 0 0 0 0 0 0 0 0 0 0 -0.000466305 -0.00639531 -0.000149782 -0.00115216 -6.27683e-05 -0.000468356 -0.00394561 -0.000222202 0 0 0 0 0 0 0 0 0 0 0 0 0 0 0 0 0 0 0 0 0 0 0 0 0 0 0 0 0 0 0 0 -0.000514557 -0.00888956 -0.000152624 -0.00133628 -8.12071e-05 -0.000514821 -0.00458084 -0.000246156 0 0 0 0 0 0 0 0 0 0 0 0 0 0 0 0 0 0 0 0 0 0 0 0 0 0 0 0 0 0 0 0 -0.000569864 -0.012695 -0.000141744 -0.00156524 -9.98151e-05 -0.000567574 -0.00498711 -0.0002717 0 0 0 0 0 0 0 0 0 0 0 0 0 0 0 0 0 0 0 0 0 0 0 0 0 0 0 0 0 0 0 0 -0.000633874 -0.0178169 -0.000139668 -0.00185392 -0.00011867 -0.000628014 -0.00455686 -0.000298987 0 0 0 0 0 0 0 0 0 0 0 0 0 0 0 0 0 0 0 0 0 0 0 0 0 0 0 0 0 0 0 0 -0.000708699 -0.0191814 -0.000167751 -0.0022251 -0.000137871 -0.000697889 -0.00220568 -0.000328183 0 0 0 0 0 0 0 0 0 0 0 0 0 0 0 0 0 0 0 0 0 0 0 0 0 0 0 0 0 0 0 0 -0.000797086 -6.59126e-06 -0.000248821 -0.00271224 -0.000157537 -0.000779398 1.38865e-05 -0.000359547 0 0 0 0 0 0 0 0 0 0 0 0 0 0 0 0 0 0 0 0 0 0 0 0 0 0 0 0 0 0 0 0 -0.000902674 -2.51002e-05 -0.000390345 -0.0033633 -0.000177809 -0.000875348 -7.75206e-06 -0.000393471 0 0 0 0 0 0 0 0 0 0 0 0 0 0 0 0 0 0 0 0 0 0 0 0 0 0 0 0 0 0 0 0 -0.00103037 -4.38928e-05 -0.000568193 -0.00424464 -0.000198851 -0.000989351 -3.22516e-05 -0.000430512 0 0 0 0 0 0 0 0 0 0 0 0 0 0 0 0 0 0 0 0 0 0 0 0 0 0 0 0 0 0 0 0 -0.00118692 -6.28748e-05 -0.000748418 -0.0054404 -0.00022085 -0.00112611 -5.80854e-05 -0.000471406 0 0 0 0 0 0 0 0 0 0 0 0 0 0 0 0 0 0 0 0 0 0 0 0 0 0 0 0 0 0 0 0 -0.00138183 -8.19674e-05 -0.000891697 -0.00702304 -0.000244022 -0.00129178 -8.35782e-05 -0.000517082 0 0 0 0 0 0 0 0 0 0 0 0 0 0 0 0 0 0 0 0 0 0 0 0 0 0 0 0 0 0 0 0 -0.0016288 -0.000101127 -0.000970452 -0.00889907 -0.000268616 -0.00149448 -0.000107426 -0.00056868 0 0 0 0 0 0 0 0 0 0 0 0 0 0 0 0 0 0 0 0 0 0 0 0 0 0 0 0 0 0 0 0 -0.00194827 -0.000120363 -0.000985276 -0.0101828 -0.000294923 -0.00174487 -0.000129081 -0.000627562 0 0 0 0 0 0 0 0 0 0 0 0 0 0 0 0 0 0 0 0 0 0 0 0 0 0 0 0 0 0 0 0 -0.00237164 -0.000139747 -0.000941271 -0.00720939 -0.000323288 -0.00205686 -0.000148837 -0.000695346 0 0 0 0 0 0 0 0 0 0 0 0 0 0 0 0 0 0 0 0 0 0 0 0 0 0 0 0 0 0 0 0 -0.00294924 -0.000159407 -0.000887933 1.50287e-06 -0.000354128 -0.00244801 -0.000167589 -0.000773969 0 0 0 0 0 0 0 0 0 0 0 0 0 0 0 0 0 0 0 0 0 0 0 0 0 0 0 0 0 0 0 0 -0.00376539 -0.000179518 -0.000869098 -1.82962e-05 -0.000387946 -0.00293894 -0.000186397 -0.000865799 0 0 0 0 0 0 0 0 0 0 0 0 0 0 0 0 0 0 0 0 0 0 0 0 0 0 0 0 0 0 0 0 -0.0049688 -0.000200286 -0.000924405 -3.94526e-05 -0.000425361 -0.00354902 -0.000206113 -0.00097381 0 0 0 0 0 0 0 0 0 0 0 0 0 0 0 0 0 0 0 0 0 0 0 0 0 0 0 0 0 0 0 0 -0.00683623 -0.00022194 -0.00106569 -6.12615e-05 -0.000467128 -0.00428113 -0.000227248 -0.00110181 0 0 0 0 0 0 0 0 0 0 0 0 0 0 0 0 0 0 0 0 0 0 0 0 0 0 0 0 0 0 0 0 -0.00990758 -0.00024473 -0.00127805 -8.29748e-05 -0.000514184 -0.00507635 -0.000250051 -0.0012547 0 0 0 0 0 0 0 0 0 0 0 0 0 0 0 0 0 0 0 0 0 0 0 0 0 0 0 0 0 0 0 0 -0.0152428 -0.000268933 -0.00153914 -0.000104028 -0.000567688 -0.00569125 -0.000274673 -0.00143883 0 0 0 0 0 0 0 0 0 0 0 0 0 0 0 0 0 0 0 0 0 0 0 0 0 0 0 0 0 0 0 0 -0.024537 -0.000294868 -0.00184146 -0.000124207 -0.000629089 -0.00542055 -0.00030138 -0.00166219 0 0 0 0 0 0 0 0 0 0 0 0 0 0 0 0 0 0 0 0 0 0 0 0 0 0 0 0 0 0 0 0 -0.035326 -0.000322912 -0.00220799 -0.000143678 -0.000700213 -0.00279891 -0.000330738 -0.0019346 0 0 0 0 0 0 0 0 0 0 0 0 0 0 0 0 0 0 0 0 0 0 0 0 0 0 0 0 0 0 0 0 -8.97318e-06 -0.000353521 -0.00269521 -0.000162887 -0.000783383 -4.41992e-06 -0.000363533 -0.00226712 0 0 0 0 0 0 0 0 0 0 0 0 0 0 0 0 0 0 0 0 0 0 0 0 0 0 0 0 0 0 0 0 -2.71809e-05 -0.000387254 -0.00338671 -0.000182368 -0.000881584 -2.30946e-05 -0.000400309 -0.00267006 0 0 0 0 0 0 0 0 0 0 0 0 0 0 0 0 0 0 0 0 0 0 0 0 0 0 0 0 0 0 0 0 -4.54576e-05 -0.000424796 -0.0043852 -0.000202591 -0.000998698 -4.20694e-05 -0.000440983 -0.00314684 0 0 0 0 0 0 0 0 0 0 0 0 0 0 0 0 0 0 0 0 0 0 0 0 0 0 0 0 0 0 0 0 -6.37989e-05 -0.000466985 -0.00581804 -0.0002239 -0.00113983 -6.12735e-05 -0.000485003 -0.00367796 0 0 0 0 0 0 0 0 0 0 0 0 0 0 0 0 0 0 0 0 0 0 0 0 0 0 0 0 0 0 0 0 -8.22282e-05 -0.000514858 -0.00784353 -0.000246546 -0.00131175 -8.06467e-05 -0.000531981 -0.00418186 0 0 0 0 0 0 0 0 0 0 0 0 0 0 0 0 0 0 0 0 0 0 0 0 0 0 0 0 0 0 0 0 -0.000100791 -0.000569711 -0.0105465 -0.00027076 -0.00152354 -0.000100155 -0.000582319 -0.00442954 0 0 0 0 0 0 0 0 0 0 0 0 0 0 0 0 0 0 0 0 0 0 0 0 0 0 0 0 0 0 0 0 -0.000119554 -0.000633179 -0.0132382 -0.000296839 -0.0017874 -0.000119809 -0.000637609 -0.00390388 0 0 0 0 0 0 0 0 0 0 0 0 0 0 0 0 0 0 0 0 0 0 0 0 0 0 0 0 0 0 0 0 -0.000138606 -0.000707346 -0.0112192 -0.00032523 -0.00211978 -0.000139669 -0.000700676 -0.00179905 0 0 0 0 0 0 0 0 0 0 0 0 0 0 0 0 0 0 0 0 0 0 0 0 0 0 0 0 0 0 0 0 -0.000158063 -0.000794912 6.20389e-06 -0.000356515 -0.00254247 -0.000159848 -0.000775256 9.01371e-07 0 0 0 0 0 0 0 0 0 0 0 0 0 0 0 0 0 0 0 0 0 0 0 0 0 0 0 0 0 0 0 0 -0.000178064 -0.000899427 -1.85249e-05 -0.000391253 -0.00308315 -0.000180505 -0.000865399 -1.75344e-05 0 0 0 0 0 0 0 0 0 0 0 0 0 0 0 0 0 0 0 0 0 0 0 0 0 0 0 0 0 0 0 0 -0.000198776 -0.00102565 -4.67911e-05 -0.000429847 -0.00377299 -0.000201829 -0.000974978 -3.66433e-05 0 0 0 0 0 0 0 0 0 0 0 0 0 0 0 0 0 0 0 0 0 0 0 0 0 0 0 0 0 0 0 0 -0.0002204 -0.00118011 -7.3314e-05 -0.000472627 -0.00463364 -0.000224032 -0.00110766 -5.62426e-05 0 0 0 0 0 0 0 0 0 0 0 0 0 0 0 0 0 0 0 0 0 0 0 0 0 0 0 0 0 0 0 0 -0.000243171 -0.00137191 -9.26985e-05 -0.00052012 -0.00563154 -0.000247345 -0.00126754 -7.61138e-05 0 0 0 0 0 0 0 0 0 0 0 0 0 0 0 0 0 0 0 0 0 0 0 0 0 0 0 0 0 0 0 0 -0.00026737 -0.00161411 -9.9282e-05 -0.000573331 -0.00653626 -0.000272016 -0.00146034 -9.60785e-05 0 0 0 0 0 0 0 0 0 0 0 0 0 0 0 0 0 0 0 0 0 0 0 0 0 0 0 0 0 0 0 0 -0.000293327 -0.00192583 -9.36951e-05 -0.000633945 -0.00654321 -0.000298323 -0.00169459 -0.000116059 0 0 0 0 0 0 0 0 0 0 0 0 0 0 0 0 0 0 0 0 0 0 0 0 0 0 0 0 0 0 0 0 -0.000321435 -0.00233593 -8.36327e-05 -0.0007044 -0.00365719 -0.000326595 -0.00198222 -0.000136109 0 0 0 0 0 0 0 0 0 0 0 0 0 0 0 0 0 0 0 0 0 0 0 0 0 0 0 0 0 0 0 0 -0.000352164 -0.00288924 -9.56027e-05 -0.000787849 -8.31226e-06 -0.000357229 -0.00233835 -0.0001564 0 0 0 0 0 0 0 0 0 0 0 0 0 0 0 0 0 0 0 0 0 0 0 0 0 0 0 0 0 0 0 0 -0.000386081 -0.00365766 -7.09689e-05 -0.000888083 -2.65181e-05 -0.00039072 -0.00277933 -0.00017719 0 0 0 0 0 0 0 0 0 0 0 0 0 0 0 0 0 0 0 0 0 0 0 0 0 0 0 0 0 0 0 0 -0.000633983 -0.0178166 -6.30179e-05 -0.00185774 -0.000118895 -0.000628205 -0.00455392 -0.000298114 0 0 0 0 0 0 0 0 0 0 0 0 0 0 0 0 0 0 0 0 0 0 0 0 0 0 0 0 0 0 0 0 