# vtk DataFile Version 2.0
Velocidad
ASCII

DATASET STRUCTURED_GRID
DIMENSIONS   40   40   30

POINTS   48000   double
0.0125   0.0125   0.0166667
0.0375   0.0125   0.0166667
0.0625   0.0125   0.0166667
0.0875   0.0125   0.0166667
0.1125   0.0125   0.0166667
0.1375   0.0125   0.0166667
0.1625   0.0125   0.0166667
0.1875   0.0125   0.0166667
0.2125   0.0125   0.0166667
0.2375   0.0125   0.0166667
0.2625   0.0125   0.0166667
0.2875   0.0125   0.0166667
0.3125   0.0125   0.0166667
0.3375   0.0125   0.0166667
0.3625   0.0125   0.0166667
0.3875   0.0125   0.0166667
0.4125   0.0125   0.0166667
0.4375   0.0125   0.0166667
0.4625   0.0125   0.0166667
0.4875   0.0125   0.0166667
0.5125   0.0125   0.0166667
0.5375   0.0125   0.0166667
0.5625   0.0125   0.0166667
0.5875   0.0125   0.0166667
0.6125   0.0125   0.0166667
0.6375   0.0125   0.0166667
0.6625   0.0125   0.0166667
0.6875   0.0125   0.0166667
0.7125   0.0125   0.0166667
0.7375   0.0125   0.0166667
0.7625   0.0125   0.0166667
0.7875   0.0125   0.0166667
0.8125   0.0125   0.0166667
0.8375   0.0125   0.0166667
0.8625   0.0125   0.0166667
0.8875   0.0125   0.0166667
0.9125   0.0125   0.0166667
0.9375   0.0125   0.0166667
0.9625   0.0125   0.0166667
0.9875   0.0125   0.0166667
0.0125   0.0375   0.0166667
0.0375   0.0375   0.0166667
0.0625   0.0375   0.0166667
0.0875   0.0375   0.0166667
0.1125   0.0375   0.0166667
0.1375   0.0375   0.0166667
0.1625   0.0375   0.0166667
0.1875   0.0375   0.0166667
0.2125   0.0375   0.0166667
0.2375   0.0375   0.0166667
0.2625   0.0375   0.0166667
0.2875   0.0375   0.0166667
0.3125   0.0375   0.0166667
0.3375   0.0375   0.0166667
0.3625   0.0375   0.0166667
0.3875   0.0375   0.0166667
0.4125   0.0375   0.0166667
0.4375   0.0375   0.0166667
0.4625   0.0375   0.0166667
0.4875   0.0375   0.0166667
0.5125   0.0375   0.0166667
0.5375   0.0375   0.0166667
0.5625   0.0375   0.0166667
0.5875   0.0375   0.0166667
0.6125   0.0375   0.0166667
0.6375   0.0375   0.0166667
0.6625   0.0375   0.0166667
0.6875   0.0375   0.0166667
0.7125   0.0375   0.0166667
0.7375   0.0375   0.0166667
0.7625   0.0375   0.0166667
0.7875   0.0375   0.0166667
0.8125   0.0375   0.0166667
0.8375   0.0375   0.0166667
0.8625   0.0375   0.0166667
0.8875   0.0375   0.0166667
0.9125   0.0375   0.0166667
0.9375   0.0375   0.0166667
0.9625   0.0375   0.0166667
0.9875   0.0375   0.0166667
0.0125   0.0625   0.0166667
0.0375   0.0625   0.0166667
0.0625   0.0625   0.0166667
0.0875   0.0625   0.0166667
0.1125   0.0625   0.0166667
0.1375   0.0625   0.0166667
0.1625   0.0625   0.0166667
0.1875   0.0625   0.0166667
0.2125   0.0625   0.0166667
0.2375   0.0625   0.0166667
0.2625   0.0625   0.0166667
0.2875   0.0625   0.0166667
0.3125   0.0625   0.0166667
0.3375   0.0625   0.0166667
0.3625   0.0625   0.0166667
0.3875   0.0625   0.0166667
0.4125   0.0625   0.0166667
0.4375   0.0625   0.0166667
0.4625   0.0625   0.0166667
0.4875   0.0625   0.0166667
0.5125   0.0625   0.0166667
0.5375   0.0625   0.0166667
0.5625   0.0625   0.0166667
0.5875   0.0625   0.0166667
0.6125   0.0625   0.0166667
0.6375   0.0625   0.0166667
0.6625   0.0625   0.0166667
0.6875   0.0625   0.0166667
0.7125   0.0625   0.0166667
0.7375   0.0625   0.0166667
0.7625   0.0625   0.0166667
0.7875   0.0625   0.0166667
0.8125   0.0625   0.0166667
0.8375   0.0625   0.0166667
0.8625   0.0625   0.0166667
0.8875   0.0625   0.0166667
0.9125   0.0625   0.0166667
0.9375   0.0625   0.0166667
0.9625   0.0625   0.0166667
0.9875   0.0625   0.0166667
0.0125   0.0875   0.0166667
0.0375   0.0875   0.0166667
0.0625   0.0875   0.0166667
0.0875   0.0875   0.0166667
0.1125   0.0875   0.0166667
0.1375   0.0875   0.0166667
0.1625   0.0875   0.0166667
0.1875   0.0875   0.0166667
0.2125   0.0875   0.0166667
0.2375   0.0875   0.0166667
0.2625   0.0875   0.0166667
0.2875   0.0875   0.0166667
0.3125   0.0875   0.0166667
0.3375   0.0875   0.0166667
0.3625   0.0875   0.0166667
0.3875   0.0875   0.0166667
0.4125   0.0875   0.0166667
0.4375   0.0875   0.0166667
0.4625   0.0875   0.0166667
0.4875   0.0875   0.0166667
0.5125   0.0875   0.0166667
0.5375   0.0875   0.0166667
0.5625   0.0875   0.0166667
0.5875   0.0875   0.0166667
0.6125   0.0875   0.0166667
0.6375   0.0875   0.0166667
0.6625   0.0875   0.0166667
0.6875   0.0875   0.0166667
0.7125   0.0875   0.0166667
0.7375   0.0875   0.0166667
0.7625   0.0875   0.0166667
0.7875   0.0875   0.0166667
0.8125   0.0875   0.0166667
0.8375   0.0875   0.0166667
0.8625   0.0875   0.0166667
0.8875   0.0875   0.0166667
0.9125   0.0875   0.0166667
0.9375   0.0875   0.0166667
0.9625   0.0875   0.0166667
0.9875   0.0875   0.0166667
0.0125   0.1125   0.0166667
0.0375   0.1125   0.0166667
0.0625   0.1125   0.0166667
0.0875   0.1125   0.0166667
0.1125   0.1125   0.0166667
0.1375   0.1125   0.0166667
0.1625   0.1125   0.0166667
0.1875   0.1125   0.0166667
0.2125   0.1125   0.0166667
0.2375   0.1125   0.0166667
0.2625   0.1125   0.0166667
0.2875   0.1125   0.0166667
0.3125   0.1125   0.0166667
0.3375   0.1125   0.0166667
0.3625   0.1125   0.0166667
0.3875   0.1125   0.0166667
0.4125   0.1125   0.0166667
0.4375   0.1125   0.0166667
0.4625   0.1125   0.0166667
0.4875   0.1125   0.0166667
0.5125   0.1125   0.0166667
0.5375   0.1125   0.0166667
0.5625   0.1125   0.0166667
0.5875   0.1125   0.0166667
0.6125   0.1125   0.0166667
0.6375   0.1125   0.0166667
0.6625   0.1125   0.0166667
0.6875   0.1125   0.0166667
0.7125   0.1125   0.0166667
0.7375   0.1125   0.0166667
0.7625   0.1125   0.0166667
0.7875   0.1125   0.0166667
0.8125   0.1125   0.0166667
0.8375   0.1125   0.0166667
0.8625   0.1125   0.0166667
0.8875   0.1125   0.0166667
0.9125   0.1125   0.0166667
0.9375   0.1125   0.0166667
0.9625   0.1125   0.0166667
0.9875   0.1125   0.0166667
0.0125   0.1375   0.0166667
0.0375   0.1375   0.0166667
0.0625   0.1375   0.0166667
0.0875   0.1375   0.0166667
0.1125   0.1375   0.0166667
0.1375   0.1375   0.0166667
0.1625   0.1375   0.0166667
0.1875   0.1375   0.0166667
0.2125   0.1375   0.0166667
0.2375   0.1375   0.0166667
0.2625   0.1375   0.0166667
0.2875   0.1375   0.0166667
0.3125   0.1375   0.0166667
0.3375   0.1375   0.0166667
0.3625   0.1375   0.0166667
0.3875   0.1375   0.0166667
0.4125   0.1375   0.0166667
0.4375   0.1375   0.0166667
0.4625   0.1375   0.0166667
0.4875   0.1375   0.0166667
0.5125   0.1375   0.0166667
0.5375   0.1375   0.0166667
0.5625   0.1375   0.0166667
0.5875   0.1375   0.0166667
0.6125   0.1375   0.0166667
0.6375   0.1375   0.0166667
0.6625   0.1375   0.0166667
0.6875   0.1375   0.0166667
0.7125   0.1375   0.0166667
0.7375   0.1375   0.0166667
0.7625   0.1375   0.0166667
0.7875   0.1375   0.0166667
0.8125   0.1375   0.0166667
0.8375   0.1375   0.0166667
0.8625   0.1375   0.0166667
0.8875   0.1375   0.0166667
0.9125   0.1375   0.0166667
0.9375   0.1375   0.0166667
0.9625   0.1375   0.0166667
0.9875   0.1375   0.0166667
0.0125   0.1625   0.0166667
0.0375   0.1625   0.0166667
0.0625   0.1625   0.0166667
0.0875   0.1625   0.0166667
0.1125   0.1625   0.0166667
0.1375   0.1625   0.0166667
0.1625   0.1625   0.0166667
0.1875   0.1625   0.0166667
0.2125   0.1625   0.0166667
0.2375   0.1625   0.0166667
0.2625   0.1625   0.0166667
0.2875   0.1625   0.0166667
0.3125   0.1625   0.0166667
0.3375   0.1625   0.0166667
0.3625   0.1625   0.0166667
0.3875   0.1625   0.0166667
0.4125   0.1625   0.0166667
0.4375   0.1625   0.0166667
0.4625   0.1625   0.0166667
0.4875   0.1625   0.0166667
0.5125   0.1625   0.0166667
0.5375   0.1625   0.0166667
0.5625   0.1625   0.0166667
0.5875   0.1625   0.0166667
0.6125   0.1625   0.0166667
0.6375   0.1625   0.0166667
0.6625   0.1625   0.0166667
0.6875   0.1625   0.0166667
0.7125   0.1625   0.0166667
0.7375   0.1625   0.0166667
0.7625   0.1625   0.0166667
0.7875   0.1625   0.0166667
0.8125   0.1625   0.0166667
0.8375   0.1625   0.0166667
0.8625   0.1625   0.0166667
0.8875   0.1625   0.0166667
0.9125   0.1625   0.0166667
0.9375   0.1625   0.0166667
0.9625   0.1625   0.0166667
0.9875   0.1625   0.0166667
0.0125   0.1875   0.0166667
0.0375   0.1875   0.0166667
0.0625   0.1875   0.0166667
0.0875   0.1875   0.0166667
0.1125   0.1875   0.0166667
0.1375   0.1875   0.0166667
0.1625   0.1875   0.0166667
0.1875   0.1875   0.0166667
0.2125   0.1875   0.0166667
0.2375   0.1875   0.0166667
0.2625   0.1875   0.0166667
0.2875   0.1875   0.0166667
0.3125   0.1875   0.0166667
0.3375   0.1875   0.0166667
0.3625   0.1875   0.0166667
0.3875   0.1875   0.0166667
0.4125   0.1875   0.0166667
0.4375   0.1875   0.0166667
0.4625   0.1875   0.0166667
0.4875   0.1875   0.0166667
0.5125   0.1875   0.0166667
0.5375   0.1875   0.0166667
0.5625   0.1875   0.0166667
0.5875   0.1875   0.0166667
0.6125   0.1875   0.0166667
0.6375   0.1875   0.0166667
0.6625   0.1875   0.0166667
0.6875   0.1875   0.0166667
0.7125   0.1875   0.0166667
0.7375   0.1875   0.0166667
0.7625   0.1875   0.0166667
0.7875   0.1875   0.0166667
0.8125   0.1875   0.0166667
0.8375   0.1875   0.0166667
0.8625   0.1875   0.0166667
0.8875   0.1875   0.0166667
0.9125   0.1875   0.0166667
0.9375   0.1875   0.0166667
0.9625   0.1875   0.0166667
0.9875   0.1875   0.0166667
0.0125   0.2125   0.0166667
0.0375   0.2125   0.0166667
0.0625   0.2125   0.0166667
0.0875   0.2125   0.0166667
0.1125   0.2125   0.0166667
0.1375   0.2125   0.0166667
0.1625   0.2125   0.0166667
0.1875   0.2125   0.0166667
0.2125   0.2125   0.0166667
0.2375   0.2125   0.0166667
0.2625   0.2125   0.0166667
0.2875   0.2125   0.0166667
0.3125   0.2125   0.0166667
0.3375   0.2125   0.0166667
0.3625   0.2125   0.0166667
0.3875   0.2125   0.0166667
0.4125   0.2125   0.0166667
0.4375   0.2125   0.0166667
0.4625   0.2125   0.0166667
0.4875   0.2125   0.0166667
0.5125   0.2125   0.0166667
0.5375   0.2125   0.0166667
0.5625   0.2125   0.0166667
0.5875   0.2125   0.0166667
0.6125   0.2125   0.0166667
0.6375   0.2125   0.0166667
0.6625   0.2125   0.0166667
0.6875   0.2125   0.0166667
0.7125   0.2125   0.0166667
0.7375   0.2125   0.0166667
0.7625   0.2125   0.0166667
0.7875   0.2125   0.0166667
[...]
POINT_DATA   48000
VECTORS Velocidad double

2.23204e-05 -2.12547e-06 1.0164e-07
6.69558e-05 -6.39123e-06 2.3487e-07
0.000111591 -1.02947e-05 3.51962e-07
0.00015623 -1.35495e-05 4.64278e-07
0.000200858 -1.59655e-05 5.75242e-07
0.000245454 -1.74606e-05 6.83094e-07
0.000289986 -1.80512e-05 7.8213e-07
0.000334423 -1.7823e-05 8.62981e-07
0.000378738 -1.68929e-05 9.12176e-07
0.00042345 -1.53721e-05 9.11082e-07
0.000467909 -1.33354e-05 0
0.000510846 -1.08018e-05 0
0.000552366 -7.73025e-06 0
0.000592635 -4.02368e-06 0
0.000631628 5.14915e-07 0
0.000669345 6.18638e-06 0
0.000705945 1.34232e-05 0
0.000742032 2.27721e-05 0
0.000779067 3.48963e-05 0
0.000959401 5.09749e-05 0
0.000986171 8.22154e-05 0
0.000868445 8.27068e-05 0
0.000867978 7.74799e-05 0
0.000831686 7.03323e-05 0
0.000794629 6.11493e-05 0
0.000761672 5.08664e-05 0
0.00073751 4.07276e-05 0
0.000727669 3.20184e-05 0
0.00073997 2.60579e-05 0
0.000944578 2.45787e-05 0
0.00105168 3.6794e-05 0
0.000974946 3.09873e-05 0
0.000947355 2.58394e-05 0
0.00086056 2.45001e-05 0
0.000743789 2.70923e-05 0
0.00059938 3.48437e-05 0
0.000427697 4.96667e-05 0
0.000228037 7.4114e-05 0
1.2242e-05 0.000108894 0
-4.83147e-05 0.000129681 0
6.71313e-05 -6.05619e-06 2.34779e-07
0.000201388 -1.82376e-05 6.12818e-07
0.000335642 -2.94426e-05 9.60639e-07
0.000469885 -3.8864e-05 1.30043e-06
0.00060407 -4.59491e-05 1.63894e-06
0.000738125 -5.044e-05 1.96991e-06
0.000871954 -5.23539e-05 2.27604e-06
0.00100544 -5.19082e-05 2.52934e-06
0.00113846 -4.94169e-05 2.68967e-06
0.00127166 -4.51853e-05 2.7014e-06
0.00140372 -3.94217e-05 0
0.00153225 -3.21725e-05 0
0.00165705 -2.33471e-05 0
0.00177813 -1.26486e-05 0
0.00189528 4.95153e-07 0
0.00200845 1.69668e-05 0
0.002118 3.80157e-05 0
0.00222527 6.51789e-05 0
0.00233331 0.00010016 0
0.00263858 0.00014542 0
0.00273541 0.000224019 0
0.00259705 0.000227793 0
0.00258361 0.000219383 0
0.00251699 0.000199854 0
0.00244127 0.000172745 0
0.00237233 0.000142173 0
0.00232386 0.00011219 0
0.00231022 8.65935e-05 0
0.00234924 6.90172e-05 0
0.00268159 6.36858e-05 0
0.0028991 9.00803e-05 0
0.00281172 7.43972e-05 0
0.00271747 6.38304e-05 0
0.00249764 5.9857e-05 0
0.0021923 6.54662e-05 0
0.00181641 8.4093e-05 0
0.0013847 0.00011884 0
0.000919428 0.000170632 0
0.000467377 0.000229123 0
0.000126393 0.000228088 0
0.000112044 -9.07712e-06 3.4918e-07
0.000336129 -2.7453e-05 9.50933e-07
0.000560207 -4.45479e-05 1.51872e-06
0.000784249 -5.91703e-05 2.07936e-06
0.00100818 -7.04566e-05 2.64035e-06
0.00123187 -7.79438e-05 3.19043e-06
0.00145516 -8.15653e-05 3.70117e-06
0.00167782 -8.15628e-05 4.12696e-06
0.00189961 -7.83467e-05 4.40227e-06
0.00212108 -7.23407e-05 4.43617e-06
0.00234041 -6.38432e-05 7.31344e-07
0.00255455 -5.2912e-05 7.10059e-07
0.0027629 -3.94415e-05 6.17663e-07
0.00296513 -2.29577e-05 4.09974e-07
0.00316077 -2.55858e-06 2.41077e-08
0.0033495 2.31645e-05 -6.30093e-07
0.00353153 5.61782e-05 -1.70576e-06
0.00370829 9.88316e-05 -3.46551e-06
0.00388292 0.000153468 -6.40366e-06
0.00428174 0.000222625 -1.16313e-05
0.00442756 0.000331309 -2.57507e-05
0.00428916 0.000342292 -2.8172e-05
0.0042859 0.000334544 -2.67273e-05
0.00421187 0.000304084 -2.40463e-05
0.00412397 0.000259738 -2.10817e-05
0.00404388 0.000209557 -1.82968e-05
0.00399048 0.000160549 -1.60512e-05
0.00398296 0.000118803 -1.47594e-05
0.00404317 8.97228e-05 -1.50841e-05
0.00444071 7.87778e-05 -1.84265e-05
0.00469664 0.000107661 -3.21048e-05
0.00458332 8.54864e-05 -3.54759e-05
0.00442913 7.16031e-05 -3.5827e-05
0.00409274 6.38015e-05 -3.59973e-05
0.00362532 6.83277e-05 -3.72583e-05
0.00305007 8.95404e-05 -4.0649e-05
0.00239213 0.000128406 -4.7685e-05
0.00168469 0.00017848 -6.09886e-05
0.000974177 0.000214508 -8.34285e-05
0.000312459 0.000162868 -0.000106005
0.000157064 -1.07855e-05 4.53853e-07
0.000471191 -3.28877e-05 1.26471e-06
0.000785305 -5.38334e-05 2.04062e-06
0.00109936 -7.22372e-05 2.81106e-06
0.00141325 -8.70031e-05 3.58328e-06
0.0017268 -9.74336e-05 4.34131e-06
0.00203978 -0.00010327 5.0468e-06
0.00235187 -0.000104635 5.63821e-06
0.00266266 -0.000101897 6.02682e-06
0.00297258 -9.5495e-05 6.0892e-06
0.0032794 -8.57566e-05 2.28281e-06
0.00357952 -7.27366e-05 2.07039e-06
0.00387197 -5.63275e-05 1.55422e-06
0.00415602 -3.59323e-05 5.65548e-07
0.00443077 -1.03769e-05 -1.12787e-06
0.00469548 2.22014e-05 -3.85635e-06
0.00494991 6.43999e-05 -8.16008e-06
0.00519503 0.000119277 -1.48938e-05
0.00543334 0.000189709 -2.54056e-05
0.00591923 0.000278309 -4.18858e-05
0.00610673 0.000413549 -7.04596e-05
0.00597056 0.000431009 -8.69396e-05
0.00599119 0.000418814 -8.95901e-05
0.00592838 0.00037594 -8.47775e-05
0.00584844 0.000314289 -7.70211e-05
0.0057759 0.000245056 -6.87821e-05
0.00573176 0.000177779 -6.17894e-05
0.0057367 0.000120431 -5.76916e-05
0.00581284 7.97291e-05 -5.85587e-05
0.00624994 6.19536e-05 -6.756e-05
0.00650974 9.13049e-05 -9.28674e-05
0.00635126 6.31674e-05 -0.000109913
0.00613508 4.22762e-05 -0.000114701
0.00568993 2.84218e-05 -0.000114663
0.00507265 2.87636e-05 -0.000113828
0.00431008 4.75116e-05 -0.000113672
0.00343207 8.35174e-05 -0.000113756
0.00247502 0.00012647 -0.000110108
0.00148157 0.000149939 -8.99846e-05
0.000490685 0.00010186 -2.66941e-05
0.000202251 -1.10504e-05 5.51378e-07
0.000606757 -3.41491e-05 1.55925e-06
0.00101125 -5.66538e-05 2.53046e-06
0.00141566 -7.71904e-05 3.49645e-06
0.00181987 -9.45322e-05 4.4641e-06
0.00222366 -0.000107738 5.41363e-06
0.00262674 -0.000116262 6.29846e-06
0.00302869 -0.00011997 7.04345e-06
0.00342898 -0.000119049 7.53959e-06
0.00382792 -0.000113841 7.63466e-06
0.00422289 -0.000104643 3.89567e-06
0.00460979 -9.1488e-05 3.33692e-06
0.00498728 -7.42907e-05 2.16643e-06
0.0053542 -5.23826e-05 7.03755e-08
0.00570916 -2.43837e-05 -3.38332e-06
0.00605083 1.19537e-05 -8.81306e-06
0.00637829 5.98e-05 -1.71737e-05
0.00669175 0.000122901 -2.98902e-05
0.00699283 0.000204733 -4.89787e-05
0.00756806 0.000308293 -7.70952e-05
0.00779551 0.000467271 -0.000120125
0.00766047 0.000485234 -0.000147017
0.00771512 0.000464565 -0.000154538
0.00767801 0.000406763 -0.000149477
0.0076221 0.00032693 -0.00013842
0.00757227 0.000238971 -0.000125728
0.00754911 0.000154388 -0.000114677
0.00757242 8.24526e-05 -0.000108283
0.00766261 3.06747e-05 -0.000109921
0.00812957 5.79929e-06 -0.000123847
0.00837641 3.48004e-05 -0.000158467
0.00815908 -1.766e-06 -0.000183557
0.00787767 -3.12547e-05 -0.000192203
0.00732567 -5.25175e-05 -0.000191812
0.00656163 -5.74601e-05 -0.00018744
0.00561219 -4.17537e-05 -0.000180693
0.00450828 -7.13267e-06 -0.00017002
0.00328758 3.61873e-05 -0.000149705
0.00199309 6.68204e-05 -0.000108651
0.000666492 5.15744e-05 -3.6661e-05
0.000247724 -9.98828e-06 6.41606e-07
0.000743184 -3.15562e-05 1.83338e-06
0.00123863 -5.3441e-05 2.98508e-06
0.00173399 -7.44627e-05 4.12949e-06
0.00222912 -9.33785e-05 5.27336e-06
0.00272379 -0.000109032 6.39425e-06
0.00321765 -0.000120541 7.43928e-06
0.00371021 -0.000127415 8.32231e-06
0.00420084 -0.000129554 8.91737e-06
0.00468973 -0.000127114 9.0477e-06
0.00517396 -0.000120306 5.44218e-06
0.0056489 -0.000109132 4.5631e-06
0.00611284 -9.35552e-05 2.78624e-06
0.0065642 -7.28923e-05 -3.25133e-07
0.00700102 -4.56308e-05 -5.37096e-06
0.00742129 -9.21034e-06 -1.32049e-05
0.00782327 4.00648e-05 -2.50974e-05
0.0082062 0.000106643 -4.28639e-05
0.00857071 0.000194743 -6.88981e-05
0.00924181 0.000308141 -0.000105969
0.00950906 0.000487667 -0.000159776
0.00937256 0.000498051 -0.00019374
0.00947078 0.000463512 -0.000204659
0.00947207 0.000387541 -0.000199555
0.00945454 0.000288485 -0.000186312
0.0094412 0.000182445 -0.000170577
0.00945027 8.21432e-05 -0.000156754
0.009499 -2.61492e-06 -0.000148838
0.00960491 -6.41714e-05 -0.00015102
0.0101003 -9.57266e-05 -0.000168007
0.010326 -6.74671e-05 -0.000208124
0.0100409 -0.000114897 -0.000237177
0.00969235 -0.000153994 -0.000247406
0.00903301 -0.000182674 -0.000245793
0.00812059 -0.000191641 -0.000237668
0.00697879 -0.000175893 -0.000224686
0.00563771 -0.000136478 -0.000205178
0.00413653 -8.15872e-05 -0.000173974
0.00252257 -2.68971e-05 -0.000122957
0.00084686 6.29627e-06 -4.63224e-05
0.000293657 -7.88774e-06 7.23571e-07
0.000880993 -2.59248e-05 2.08271e-06
0.00146833 -4.5391e-05 3.39704e-06
0.00205557 -6.54323e-05 4.69997e-06
0.00264258 -8.49057e-05 5.99832e-06
0.00322912 -0.00010251 7.26806e-06
0.00381482 -0.000117036 8.45192e-06
0.00439912 -0.000127608 9.45539e-06
0.00498131 -0.00013378 1.0139e-05
0.00556157 -0.000135475 1.03059e-05
0.00613662 -0.000132782 6.89972e-06
0.00670134 -0.000125675 5.73718e-06
0.00725368 -0.000114201 3.42118e-06
0.00779161 -9.77295e-05 -5.88216e-07
0.00831261 -7.47084e-05 -7.02944e-06
0.00881389 -4.23642e-05 -1.69447e-05
0.00929275 3.44551e-06 -3.18474e-05
0.00974728 6.78666e-05 -5.38351e-05
0.010177 0.000156022 -8.55543e-05
0.0109531 0.000272945 -0.000129841
0.0112598 0.000468917 -0.000192465
0.0111179 0.000461871 -0.000231879
0.0112703 0.000407008 -0.000245164
0.011323 0.000309581 -0.000239749
0.0113583 0.000190893 -0.000224612
0.0113954 6.83985e-05 -0.000206371
0.0114486 -4.49997e-05 -0.000190254
0.0115314 -0.000139927 -0.000180938
0.0116577 -0.000209338 -0.000183125
0.0121847 -0.000246838 -0.00020175
0.0123854 -0.000219886 -0.000245151
0.0120271 -0.000280047 -0.000275951
0.0116119 -0.000328902 -0.00028615
0.0108446 -0.000363494 -0.000282428
0.00978026 -0.000373196 -0.000270316
0.00843749 -0.000352023 -0.000251623
0.00684445 -0.000299745 -0.000225002
0.00504242 -0.000222088 -0.000186283
0.00308571 -0.000130098 -0.000129461
0.00103811 -3.80917e-05 -5.01161e-05
0.000340277 -5.09727e-06 7.9579e-07
0.00102087 -1.82521e-05 2.30118e-06
0.00170147 -3.39991e-05 3.75674e-06
0.002382 -5.188e-05 5.19572e-06
0.00306232 -7.09533e-05 6.62503e-06
0.00374219 -8.98715e-05 8.0199e-06
0.00442123 -0.000107172 9.3203e-06
0.00509888 -0.000121623 1.04258e-05
0.00577436 -0.000132441 1.1187e-05
0.00644788 -0.000139306 1.13912e-05
0.00711586 -0.000142187 8.24605e-06
0.00777265 -0.000141042 6.84162e-06
0.0084159 -0.000136053 4.06221e-06
0.00904318 -0.000126734 -7.1923e-07
0.00965138 -0.000111622 -8.35709e-06
0.0102369 -8.78954e-05 -2.005e-05
0.0107959 -5.11334e-05 -3.75131e-05
0.0113252 4.40724e-06 -6.30796e-05
0.0118229 8.48689e-05 -9.96221e-05
0.0127152 0.000197128 -0.000150096
0.0130598 0.000403707 -0.000220602
0.0129072 0.000367497 -0.000264514
0.0131269 0.000285708 -0.00027944
0.0132457 0.000164686 -0.000273315
0.0133495 2.77194e-05 -0.000256179
0.013452 -0.0001078 -0.000235482
0.0135622 -0.000230178 -0.000217096
0.0136893 -0.000331629 -0.000206192
0.0138429 -0.000406551 -0.000207819
0.0144073 -0.000449419 -0.000227072
0.0145817 -0.000425379 -0.00027245
0.0141481 -0.00049946 -0.000303632
0.0136695 -0.000557001 -0.000312803
0.0127947 -0.000594385 -0.000306453
0.0115744 -0.000599888 -0.000290413
0.0100202 -0.000566621 -0.000266788
0.00815705 -0.00049302 -0.000234719
0.00602891 -0.00038252 -0.000190982
0.00369891 -0.000242703 -0.000130975
0.00124626 -8.36576e-05 -5.09234e-05
0.000387869 -1.92082e-06 8.55624e-07
0.00116366 -9.41848e-06 2.48156e-06
0.0019395 -2.0614e-05 4.05373e-06
0.00271528 -3.5457e-05 5.60434e-06
0.00349089 -5.32821e-05 7.14017e-06
0.00426612 -7.28023e-05 8.63622e-06
0.00504059 -9.24071e-05 1.0031e-05
0.00581375 -0.000110594 1.12206e-05
0.00658481 -0.0001263 1.20485e-05
0.00735408 -0.000138996 1.22911e-05
0.00811767 -0.000148554 9.45978e-06
0.00886942 -0.000154949 7.85641e-06
0.00960673 -0.000158572 4.69135e-06
0.0103268 -0.000159197 -7.36716e-07
0.011026 -0.000155641 -9.38197e-06
0.0116999 -0.000145306 -2.258e-05
0.0123434 -0.000123829 -4.22294e-05
0.0129517 -8.51723e-05 -7.08895e-05
0.0135211 -2.22073e-05 -0.000111675
0.0145427 7.44182e-05 -0.000167734
0.0149223 0.000282534 -0.00024571
0.0147532 0.00020374 -0.000293478
0.0150571 8.97968e-05 -0.000309484
0.0152592 -5.40765e-05 -0.000302223
0.0154487 -0.000204802 -0.00028282
0.0156322 -0.000347221 -0.000259501
0.0158131 -0.000472573 -0.000238673
0.0159957 -0.000575906 -0.00022589
0.0161856 -0.000653888 -0.000226461
0.0167941 -0.000702301 -0.000245627
0.0169429 -0.000685065 -0.000292164
0.0164357 -0.000773296 -0.000322857
0.0159003 -0.000836837 -0.000330446
0.0149204 -0.000872164 -0.000321299
0.0135403 -0.000867215 -0.000301655
0.0117624 -0.000814625 -0.000273997
0.00960756 -0.000711669 -0.000237979
0.00712207 -0.00055977 -0.000191139
0.00437958 -0.000363816 -0.000129776
0.00147749 -0.000131058 -5.04191e-05
0.000436779 1.4455e-06 9.00297e-07
0.00131041 -4.0882e-09 2.61707e-06
0.00218413 -6.15174e-06 4.27866e-06
0.00305782 -1.73283e-05 5.91515e-06
0.00393141 -3.31841e-05 7.53281e-06
0.0048047 -5.25841e-05 9.10661e-06
0.00567737 -7.38843e-05 1.05747e-05
0.00654887 -9.54223e-05 1.18314e-05
0.00741847 -0.000115941 1.27165e-05
0.00828662 -0.000134761 1.29997e-05
0.00914916 -0.000151704 1.05226e-05
0.00999944 -0.000166812 8.76327e-06
0.0108347 -0.000180764 5.28996e-06
0.0116518 -0.000193749 -6.62063e-07
0.0124467 -0.000205126 -1.01347e-05
0.013214 -0.000212938 -2.45882e-05
0.0139475 -0.000213458 -4.60985e-05
0.0146406 -0.000200988 -7.74558e-05
0.015287 -0.00016781 -0.000122046
0.0164528 -0.000101668 -0.000183274
0.0168631 9.29043e-05 -0.000268497
0.0166729 -4.22581e-05 -0.000319563
0.0170833 -0.000189677 -0.000336186
0.0173885 -0.000350516 -0.000327397
0.0176814 -0.000505883 -0.000305444
0.0179615 -0.000645738 -0.000279296
0.0182265 -0.000766063 -0.000255825
0.0184764 -0.000865845 -0.00024089
0.0187124 -0.00094472 -0.00024001
0.0193718 -0.00100024 -0.000258562
0.0194984 -0.000997692 -0.000305685
0.0189249 -0.00109851 -0.000335287
0.0183426 -0.00116324 -0.000341047
0.0172618 -0.0011899 -0.000329194
0.0157185 -0.00116737 -0.000306429
0.0137034 -0.00108837 -0.000275649
0.0112313 -0.000949158 -0.000236964
0.00835054 -0.000749246 -0.000188475
0.00514656 -0.000491162 -0.000127036
0.0017384 -0.000179946 -4.92875e-05
0.000487419 4.92233e-06 9.2727e-07
0.00146236 9.74584e-06 2.7024e-06
0.00243743 8.97295e-06 4.42456e-06
0.00341251 1.93781e-06 6.12068e-06
0.00438756 -1.13373e-05 7.79586e-06
0.00536244 -2.99328e-05 9.42503e-06
0.00633686 -5.22673e-05 1.09467e-05
0.00731034 -7.66237e-05 1.22552e-05
0.0082822 -0.000101641 1.31895e-05
0.00925313 -0.000126559 1.35171e-05
0.0102187 -0.000151194 1.14215e-05
0.0111718 -0.000175704 9.54962e-06
0.0121095 -0.000201148 5.84579e-06
0.0130287 -0.000228303 -5.0781e-07
0.0139247 -0.000257391 -1.06297e-05
0.0147918 -0.000287649 -2.60948e-05
0.0156223 -0.00031684 -4.91514e-05
0.0164078 -0.000340723 -8.28271e-05
0.0171391 -0.000352068 -0.000130803
0.0184645 -0.00033619 -0.000196787
0.0189015 -0.000181461 -0.000288987
0.0186911 -0.000383005 -0.000342717
0.0192364 -0.000557338 -0.000359569
0.0196656 -0.000721778 -0.000348949
0.0200785 -0.000867306 -0.000324252
0.0204687 -0.000991961 -0.000295148
0.0208297 -0.00109778 -0.000268914
0.0211581 -0.0011883 -0.000251644
0.0214513 -0.00126658 -0.000249019
0.0221665 -0.00133263 -0.000266545
0.0222782 -0.00135867 -0.000313763
0.0216543 -0.0014669 -0.000341797
0.0210381 -0.00152536 -0.000345688
0.0198627 -0.00153536 -0.000331397
0.0181532 -0.00148808 -0.000306095
0.015886 -0.00137671 -0.000273069
0.0130671 -0.00119637 -0.000232804
0.00974584 -0.000944417 -0.000183796
0.00602067 -0.000621007 -0.00012323
0.0020363 -0.000229212 -4.77636e-05
0.000540285 8.51836e-06 9.34923e-07
0.00162099 1.98411e-05 2.73447e-06
0.00270185 2.47445e-05 4.4878e-06
0.00378279 2.22702e-05 6.21759e-06
0.00486377 1.21165e-05 7.92697e-06
0.00594471 -5.0465e-06 9.59057e-06
0.00702538 -2.77647e-05 1.11478e-05
0.00810539 -5.43422e-05 1.24945e-05
0.00918414 -8.33841e-05 1.34719e-05
0.0102626 -0.0001141 1.38493e-05
0.0113362 -0.000146339 1.21505e-05
0.0123972 -0.000180406 1.02109e-05
0.0134428 -0.000217817 6.3568e-06
0.0144698 -0.000260091 -2.71654e-07
0.0154734 -0.000308632 -1.08571e-05
0.0164475 -0.000364485 -2.70758e-05
0.0173837 -0.000427959 -5.13389e-05
0.0182719 -0.000497877 -8.69082e-05
0.0190997 -0.000569692 -0.000137769
0.0205972 -0.000629063 -0.000207961
0.0210609 -0.000561136 -0.000306637
0.0208458 -0.000824841 -0.000362205
0.0215592 -0.00100654 -0.000378981
0.0221309 -0.00115275 -0.000366378
0.0226755 -0.00126978 -0.000338908
0.0231846 -0.00136522 -0.000306888
0.0236504 -0.0014471 -0.000277922
0.0240673 -0.00152322 -0.000258267
0.0244295 -0.00160025 -0.000253708
0.0252015 -0.00168193 -0.000269853
0.0253126 -0.00175831 -0.000316649
0.024667 -0.00186213 -0.000342681
0.0240318 -0.00190422 -0.000344804
0.0227692 -0.00188939 -0.000328474
0.0208909 -0.00181178 -0.000301287
0.0183556 -0.00166471 -0.000266864
0.0151571 -0.0014415 -0.000225975
0.0113428 -0.00113687 -0.000177386
0.00702514 -0.000748355 -0.000118481
0.00237936 -0.000277185 -4.58984e-05
0.000595962 1.22843e-05 9.22274e-07
0.00178805 3.0422e-05 2.71222e-06
0.00298034 4.13619e-05 4.46802e-06
0.00417274 4.38811e-05 6.20682e-06
0.00536525 3.73567e-05 7.92872e-06
0.00655785 2.21971e-05 9.60764e-06
0.00775039 -2.96659e-07 1.11842e-05
0.00894255 -2.84846e-05 1.25573e-05
0.0101339 -6.09713e-05 1.35727e-05
0.0113257 -9.69578e-05 1.4006e-05
0.0125131 -0.000136332 1.27105e-05
0.0136881 -0.000179551 1.0751e-05
0.0148478 -0.000228609 6.83137e-06
0.0159892 -0.000285846 6.34801e-08
0.0171078 -0.000354063 -1.07831e-05
0.0181974 -0.00043659 -2.74664e-05
0.0192495 -0.000537244 -5.25396e-05
0.0202531 -0.000659755 -8.94792e-05
0.0211937 -0.000805706 -0.000142565
0.0228634 -0.000968187 -0.000216171
0.0233687 -0.00106966 -0.00032044
0.0231951 -0.00135487 -0.000376755
0.0241061 -0.00150818 -0.000393266
0.0248297 -0.00160935 -0.000378729
0.0255089 -0.00167991 -0.000348693
0.0261393 -0.00173476 -0.000314028
0.0267144 -0.00178591 -0.000282564
0.0272282 -0.00184418 -0.000260632
0.0276722 -0.0019198 -0.000254051
0.0284946 -0.00202233 -0.000268485
0.0286309 -0.00217822 -0.000314234
0.0280106 -0.00225558 -0.000337858
0.0273694 -0.00227033 -0.000338401
0.0260274 -0.00222525 -0.000320532
0.0239788 -0.00211586 -0.000292176
0.0211602 -0.00193418 -0.000257203
0.0175468 -0.00167073 -0.000216585
0.0131803 -0.00131691 -0.000169261
0.00818633 -0.000867423 -0.000112745
0.00277698 -0.000321868 -4.36717e-05
0.00065515 1.62746e-05 8.89446e-07
0.00196564 4.164e-05 2.63691e-06
0.00327637 5.90509e-05 4.36817e-06
0.00458722 6.70276e-05 6.0934e-06
0.00589823 6.46218e-05 7.80839e-06
0.00720943 5.1984e-05 9.4856e-06
0.00852073 3.02719e-05 1.1067e-05
0.00983195 1.07703e-06 1.24558e-05
0.0111427 -3.41976e-05 1.35046e-05
0.0124548 -7.47307e-05 1.39996e-05
0.0137632 -0.000120421 1.31087e-05
0.0150592 -0.000171831 1.11798e-05
0.0163402 -0.000231383 7.28498e-06
0.0176036 -0.000302181 5.23941e-07
0.0188452 -0.000388386 -1.03597e-05
0.0200595 -0.00049568 -2.71762e-05
0.0212387 -0.000631754 -5.25829e-05
0.0223727 -0.000806461 -9.02293e-05
0.023447 -0.00103124 -0.000144652
0.0252556 -0.00131861 -0.00022055
0.0258554 -0.00172043 -0.000329064
0.0258272 -0.00191617 -0.000384739
0.0269376 -0.00199794 -0.000400931
0.027804 -0.00203463 -0.000384758
0.0286093 -0.00205072 -0.000352653
0.0293572 -0.00206212 -0.000315895
0.0300434 -0.0020815 -0.000282409
0.0306616 -0.00212107 -0.000258482
0.0312011 -0.00219439 -0.000249878
0.0320568 -0.0023193 -0.000262258
0.0322612 -0.00258383 -0.000306172
0.031735 -0.00260221 -0.000327003
0.0310931 -0.00258367 -0.000326228
0.02968 -0.00251043 -0.000307417
0.0274632 -0.00237488 -0.000278684
0.024349 -0.00216572 -0.000244039
0.0202858 -0.00186976 -0.000204569
0.0153017 -0.00147468 -0.000159328
0.00953459 -0.000972362 -0.00010593
0.00324007 -0.000361225 -4.10436e-05
0.000718678 2.05221e-05 8.37547e-07
0.00215626 5.3583e-05 2.51195e-06
0.00359408 7.7929e-05 4.19429e-06
0.005032 9.18229e-05 5.88622e-06
0.00647008 9.39864e-05 7.57751e-06
0.00790839 8.43322e-05 9.23818e-06
0.00934692 6.39124e-05 1.08115e-05
0.0107856 3.4309e-05 1.22058e-05
0.0122242 -3.0295e-06 1.3283e-05
0.0136649 -4.72167e-05 1.38431e-05
0.0151025 -9.81013e-05 1.33558e-05
0.0165278 -0.000156254 1.15101e-05
0.0179384 -0.00022439 7.7344e-06
0.0193322 -0.000306151 1.13573e-06
0.0207057 -0.000406699 -9.53965e-06
0.0220544 -0.000533496 -2.61136e-05
0.0233723 -0.000697311 -5.12856e-05
0.0246517 -0.00091334 -8.88051e-05