# vtk DataFile Version 2.0
Presion
ASCII

DATASET STRUCTURED_GRID
DIMENSIONS   40   40   30

POINTS   48000   double
0.0125   0.0125   0.0166667
0.0375   0.0125   0.0166667
0.0625   0.0125   0.0166667
0.0875   0.0125   0.0166667
0.1125   0.0125   0.0166667
0.1375   0.0125   0.0166667
0.1625   0.0125   0.0166667
0.1875   0.0125   0.0166667
0.2125   0.0125   0.0166667
0.2375   0.0125   0.0166667
0.2625   0.0125   0.0166667
0.2875   0.0125   0.0166667
0.3125   0.0125   0.0166667
0.3375   0.0125   0.0166667
0.3625   0.0125   0.0166667
0.3875   0.0125   0.0166667
0.4125   0.0125   0.0166667
0.4375   0.0125   0.0166667
0.4625   0.0125   0.0166667
0.4875   0.0125   0.0166667
0.5125   0.0125   0.0166667
0.5375   0.0125   0.0166667
0.5625   0.0125   0.0166667
0.5875   0.0125   0.0166667
0.6125   0.0125   0.0166667
0.6375   0.0125   0.0166667
0.6625   0.0125   0.0166667
0.6875   0.0125   0.0166667
0.7125   0.0125   0.0166667
0.7375   0.0125   0.0166667
0.7625   0.0125   0.0166667
0.7875   0.0125   0.0166667
0.8125   0.0125   0.0166667
0.8375   0.0125   0.0166667
0.8625   0.0125   0.0166667
0.8875   0.0125   0.0166667
0.9125   0.0125   0.0166667
0.9375   0.0125   0.0166667
0.9625   0.0125   0.0166667
0.9875   0.0125   0.0166667
0.0125   0.0375   0.0166667
0.0375   0.0375   0.0166667
0.0625   0.0375   0.0166667
0.0875   0.0375   0.0166667
0.1125   0.0375   0.0166667
0.1375   0.0375   0.0166667
0.1625   0.0375   0.0166667
0.1875   0.0375   0.0166667
0.2125   0.0375   0.0166667
0.2375   0.0375   0.0166667
0.2625   0.0375   0.0166667
0.2875   0.0375   0.0166667
0.3125   0.0375   0.0166667
0.3375   0.0375   0.0166667
0.3625   0.0375   0.0166667
0.3875   0.0375   0.0166667
0.4125   0.0375   0.0166667
0.4375   0.0375   0.0166667
0.4625   0.0375   0.0166667
0.4875   0.0375   0.0166667
0.5125   0.0375   0.0166667
0.5375   0.0375   0.0166667
0.5625   0.0375   0.0166667
0.5875   0.0375   0.0166667
0.6125   0.0375   0.0166667
0.6375   0.0375   0.0166667
0.6625   0.0375   0.0166667
0.6875   0.0375   0.0166667
0.7125   0.0375   0.0166667
0.7375   0.0375   0.0166667
0.7625   0.0375   0.0166667
0.7875   0.0375   0.0166667
0.8125   0.0375   0.0166667
0.8375   0.0375   0.0166667
0.8625   0.0375   0.0166667
0.8875   0.0375   0.0166667
0.9125   0.0375   0.0166667
0.9375   0.0375   0.0166667
0.9625   0.0375   0.0166667
0.9875   0.0375   0.0166667
0.0125   0.0625   0.0166667
0.0375   0.0625   0.0166667
0.0625   0.0625   0.0166667
0.0875   0.0625   0.0166667
0.1125   0.0625   0.0166667
0.1375   0.0625   0.0166667
0.1625   0.0625   0.0166667
0.1875   0.0625   0.0166667
0.2125   0.0625   0.0166667
0.2375   0.0625   0.0166667
0.2625   0.0625   0.0166667
0.2875   0.0625   0.0166667
0.3125   0.0625   0.0166667
0.3375   0.0625   0.0166667
0.3625   0.0625   0.0166667
0.3875   0.0625   0.0166667
0.4125   0.0625   0.0166667
0.4375   0.0625   0.0166667
0.4625   0.0625   0.0166667
0.4875   0.0625   0.0166667
0.5125   0.0625   0.0166667
0.5375   0.0625   0.0166667
0.5625   0.0625   0.0166667
0.5875   0.0625   0.0166667
0.6125   0.0625   0.0166667
0.6375   0.0625   0.0166667
0.6625   0.0625   0.0166667
0.6875   0.0625   0.0166667
0.7125   0.0625   0.0166667
0.7375   0.0625   0.0166667
0.7625   0.0625   0.0166667
0.7875   0.0625   0.0166667
0.8125   0.0625   0.0166667
0.8375   0.0625   0.0166667
0.8625   0.0625   0.0166667
0.8875   0.0625   0.0166667
0.9125   0.0625   0.0166667
0.9375   0.0625   0.0166667
0.9625   0.0625   0.0166667
0.9875   0.0625   0.0166667
0.0125   0.0875   0.0166667
0.0375   0.0875   0.0166667
0.0625   0.0875   0.0166667
0.0875   0.0875   0.0166667
0.1125   0.0875   0.0166667
0.1375   0.0875   0.0166667
0.1625   0.0875   0.0166667
0.1875   0.0875   0.0166667
0.2125   0.0875   0.0166667
0.2375   0.0875   0.0166667
0.2625   0.0875   0.0166667
0.2875   0.0875   0.0166667
0.3125   0.0875   0.0166667
0.3375   0.0875   0.0166667
0.3625   0.0875   0.0166667
0.3875   0.0875   0.0166667
0.4125   0.0875   0.0166667
0.4375   0.0875   0.0166667
0.4625   0.0875   0.0166667
0.4875   0.0875   0.0166667
0.5125   0.0875   0.0166667
0.5375   0.0875   0.0166667
0.5625   0.0875   0.0166667
0.5875   0.0875   0.0166667
0.6125   0.0875   0.0166667
0.6375   0.0875   0.0166667
0.6625   0.0875   0.0166667
0.6875   0.0875   0.0166667
0.7125   0.0875   0.0166667
0.7375   0.0875   0.0166667
0.7625   0.0875   0.0166667
0.7875   0.0875   0.0166667
0.8125   0.0875   0.0166667
0.8375   0.0875   0.0166667
0.8625   0.0875   0.0166667
0.8875   0.0875   0.0166667
0.9125   0.0875   0.0166667
0.9375   0.0875   0.0166667
0.9625   0.0875   0.0166667
0.9875   0.0875   0.0166667
0.0125   0.1125   0.0166667
0.0375   0.1125   0.0166667
0.0625   0.1125   0.0166667
0.0875   0.1125   0.0166667
0.1125   0.1125   0.0166667
0.1375   0.1125   0.0166667
0.1625   0.1125   0.0166667
0.1875   0.1125   0.0166667
0.2125   0.1125   0.0166667
0.2375   0.1125   0.0166667
0.2625   0.1125   0.0166667
0.2875   0.1125   0.0166667
0.3125   0.1125   0.0166667
0.3375   0.1125   0.0166667
0.3625   0.1125   0.0166667
0.3875   0.1125   0.0166667
0.4125   0.1125   0.0166667
0.4375   0.1125   0.0166667
0.4625   0.1125   0.0166667
0.4875   0.1125   0.0166667
0.5125   0.1125   0.0166667
0.5375   0.1125   0.0166667
0.5625   0.1125   0.0166667
0.5875   0.1125   0.0166667
0.6125   0.1125   0.0166667
0.6375   0.1125   0.0166667
0.6625   0.1125   0.0166667
0.6875   0.1125   0.0166667
0.7125   0.1125   0.0166667
0.7375   0.1125   0.0166667
0.7625   0.1125   0.0166667
0.7875   0.1125   0.0166667
0.8125   0.1125   0.0166667
0.8375   0.1125   0.0166667
0.8625   0.1125   0.0166667
0.8875   0.1125   0.0166667
0.9125   0.1125   0.0166667
0.9375   0.1125   0.0166667
0.9625   0.1125   0.0166667
0.9875   0.1125   0.0166667
0.0125   0.1375   0.0166667
0.0375   0.1375   0.0166667
0.0625   0.1375   0.0166667
0.0875   0.1375   0.0166667
0.1125   0.1375   0.0166667
0.1375   0.1375   0.0166667
0.1625   0.1375   0.0166667
0.1875   0.1375   0.0166667
0.2125   0.1375   0.0166667
0.2375   0.1375   0.0166667
0.2625   0.1375   0.0166667
0.2875   0.1375   0.0166667
0.3125   0.1375   0.0166667
0.3375   0.1375   0.0166667
0.3625   0.1375   0.0166667
0.3875   0.1375   0.0166667
0.4125   0.1375   0.0166667
0.4375   0.1375   0.0166667
0.4625   0.1375   0.0166667
0.4875   0.1375   0.0166667
0.5125   0.1375   0.0166667
0.5375   0.1375   0.0166667
0.5625   0.1375   0.0166667
0.5875   0.1375   0.0166667
0.6125   0.1375   0.0166667
0.6375   0.1375   0.0166667
0.6625   0.1375   0.0166667
0.6875   0.1375   0.0166667
0.7125   0.1375   0.0166667
0.7375   0.1375   0.0166667
0.7625   0.1375   0.0166667
0.7875   0.1375   0.0166667
0.8125   0.1375   0.0166667
0.8375   0.1375   0.0166667
0.8625   0.1375   0.0166667
0.8875   0.1375   0.0166667
0.9125   0.1375   0.0166667
0.9375   0.1375   0.0166667
0.9625   0.1375   0.0166667
0.9875   0.1375   0.0166667
0.0125   0.1625   0.0166667
0.0375   0.1625   0.0166667
0.0625   0.1625   0.0166667
0.0875   0.1625   0.0166667
0.1125   0.1625   0.0166667
0.1375   0.1625   0.0166667
0.1625   0.1625   0.0166667
0.1875   0.1625   0.0166667
0.2125   0.1625   0.0166667
0.2375   0.1625   0.0166667
0.2625   0.1625   0.0166667
0.2875   0.1625   0.0166667
0.3125   0.1625   0.0166667
0.3375   0.1625   0.0166667
0.3625   0.1625   0.0166667
0.3875   0.1625   0.0166667
0.4125   0.1625   0.0166667
0.4375   0.1625   0.0166667
0.4625   0.1625   0.0166667
0.4875   0.1625   0.0166667
0.5125   0.1625   0.0166667
0.5375   0.1625   0.0166667
0.5625   0.1625   0.0166667
0.5875   0.1625   0.0166667
0.6125   0.1625   0.0166667
0.6375   0.1625   0.0166667
0.6625   0.1625   0.0166667
0.6875   0.1625   0.0166667
0.7125   0.1625   0.0166667
0.7375   0.1625   0.0166667
0.7625   0.1625   0.0166667
0.7875   0.1625   0.0166667
0.8125   0.1625   0.0166667
0.8375   0.1625   0.0166667
0.8625   0.1625   0.0166667
0.8875   0.1625   0.0166667
0.9125   0.1625   0.0166667
0.9375   0.1625   0.0166667
0.9625   0.1625   0.0166667
0.9875   0.1625   0.0166667
0.0125   0.1875   0.0166667
0.0375   0.1875   0.0166667
0.0625   0.1875   0.0166667
0.0875   0.1875   0.0166667
0.1125   0.1875   0.0166667
0.1375   0.1875   0.0166667
0.1625   0.1875   0.0166667
0.1875   0.1875   0.0166667
0.2125   0.1875   0.0166667
0.2375   0.1875   0.0166667
0.2625   0.1875   0.0166667
0.2875   0.1875   0.0166667
0.3125   0.1875   0.0166667
0.3375   0.1875   0.0166667
0.3625   0.1875   0.0166667
0.3875   0.1875   0.0166667
0.4125   0.1875   0.0166667
0.4375   0.1875   0.0166667
0.4625   0.1875   0.0166667
0.4875   0.1875   0.0166667
0.5125   0.1875   0.0166667
0.5375   0.1875   0.0166667
0.5625   0.1875   0.0166667
0.5875   0.1875   0.0166667
0.6125   0.1875   0.0166667
0.6375   0.1875   0.0166667
0.6625   0.1875   0.0166667
0.6875   0.1875   0.0166667
0.7125   0.1875   0.0166667
0.7375   0.1875   0.0166667
0.7625   0.1875   0.0166667
0.7875   0.1875   0.0166667
0.8125   0.1875   0.0166667
0.8375   0.1875   0.0166667
0.8625   0.1875   0.0166667
0.8875   0.1875   0.0166667
0.9125   0.1875   0.0166667
0.9375   0.1875   0.0166667
0.9625   0.1875   0.0166667
0.9875   0.1875   0.0166667
0.0125   0.2125   0.0166667
0.0375   0.2125   0.0166667
0.0625   0.2125   0.0166667
0.0875   0.2125   0.0166667
0.1125   0.2125   0.0166667
0.1375   0.2125   0.0166667
0.1625   0.2125   0.0166667
0.1875   0.2125   0.0166667
0.2125   0.2125   0.0166667
0.2375   0.2125   0.0166667
0.2625   0.2125   0.0166667
0.2875   0.2125   0.0166667
0.3125   0.2125   0.0166667
0.3375   0.2125   0.0166667
0.3625   0.2125   0.0166667
0.3875   0.2125   0.0166667
0.4125   0.2125   0.0166667
0.4375   0.2125   0.0166667
0.4625   0.2125   0.0166667
0.4875   0.2125   0.0166667
0.5125   0.2125   0.0166667
0.5375   0.2125   0.0166667
0.5625   0.2125   0.0166667
0.5875   0.2125   0.0166667
0.6125   0.2125   0.0166667
0.6375   0.2125   0.0166667
0.6625   0.2125   0.0166667
0.6875   0.2125   0.0166667
0.7125   0.2125   0.0166667
0.7375   0.2125   0.0166667
0.7625   0.2125   0.0166667
0.7875   0.2125   0.0166667
[...]
POINT_DATA   48000
SCALARS Presion double
LOOKUP_TABLE   Presion

0 0 0 0 0 0 0 0 0 0 0 0 0 0 0 0 0 0 0 0 0 0 0 0 0 0 0 0 0 0 0 -0.000668582 -0.000646634 -0.000291762 -0.000550026 -0.000947787 -0.000336777 -0.000272114 -7.32685e-05 0 0 0 0 0 0 0 0 0 0 0 0 0 0 0 0 0 0 0 0 0 0 0 0 0 0 0 0 0 0 0 0 -0.000671307 -0.000651581 -0.000382003 -0.000550034 -0.00117814 -0.000339137 -0.000277259 -0.000101984 0 0 0 0 0 0 0 0 0 0 0 0 0 0 0 0 0 0 0 0 0 0 0 0 0 0 0 0 0 0 0 0 -0.000672688 -0.00066152 -0.000452892 -0.000550046 -0.00144523 -0.000340362 -0.00028761 -0.000127949 0 0 0 0 0 0 0 0 0 0 0 0 0 0 0 0 0 0 0 0 0 0 0 0 0 0 0 0 0 0 0 0 -0.000673353 -0.00068049 -0.000505419 -0.000550075 -0.00168554 -0.000340963 -0.000307173 -0.00014972 0 0 0 0 0 0 0 0 0 0 0 0 0 0 0 0 0 0 0 0 0 0 0 0 0 0 0 0 0 0 0 0 -0.000673658 -0.000714934 -0.000542227 -0.000550151 -0.00169009 -0.000341242 -0.000341774 -0.000166633 0 0 0 0 0 0 0 0 0 0 0 0 0 0 0 0 0 0 0 0 0 0 0 0 0 0 0 0 0 0 0 0 -0.000673792 -0.000774632 -0.000566664 -0.000550343 -0.000945228 -0.000341366 -0.000398818 -0.000178834 0 0 0 0 0 0 0 0 0 0 0 0 0 0 0 0 0 0 0 0 0 0 0 0 0 0 0 0 0 0 0 0 -0.000673847 -0.000873987 -0.000582052 -0.000550816 -3.73661e-05 -0.000341418 -0.000486118 -0.00018703 0 0 0 0 0 0 0 0 0 0 0 0 0 0 0 0 0 0 0 0 0 0 0 0 0 0 0 0 0 0 0 0 -0.00067387 -0.00103424 -0.000591248 -0.000551922 -0.000110969 -0.00034144 -0.000609639 -0.000192176 0 0 0 0 0 0 0 0 0 0 0 0 0 0 0 0 0 0 0 0 0 0 0 0 0 0 0 0 0 0 0 0 -0.00067388 -0.00128784 -0.000596466 -0.000554382 -0.000180427 -0.000341449 -0.000770339 -0.000195203 0 0 0 0 0 0 0 0 0 0 0 0 0 0 0 0 0 0 0 0 0 0 0 0 0 0 0 0 0 0 0 0 -0.000673886 -0.00168662 -0.000599278 -0.000559572 -0.000242285 -0.000341456 -0.000959778 -0.000196877 0 0 0 0 0 0 0 0 0 0 0 0 0 0 0 0 0 0 0 0 0 0 0 0 0 0 0 0 0 0 0 0 -0.000673897 -0.00231422 -0.000600717 -0.000569928 -0.000293942 -0.000341467 -0.00115114 -0.000197748 0 0 0 0 0 0 0 0 0 0 0 0 0 0 0 0 0 0 0 0 0 0 0 0 0 0 0 0 0 0 0 0 -0.000673922 -0.00328568 -0.000601417 -0.000589462 -0.000334327 -0.000341495 -0.00127606 -0.000198177 0 0 0 0 0 0 0 0 0 0 0 0 0 0 0 0 0 0 0 0 0 0 0 0 0 0 0 0 0 0 0 0 -0.000673988 -0.00460081 -0.00060174 -0.000624266 -0.000363914 -0.00034157 -0.0011758 -0.000198376 0 0 0 0 0 0 0 0 0 0 0 0 0 0 0 0 0 0 0 0 0 0 0 0 0 0 0 0 0 0 0 0 -0.000674156 -0.00494935 -0.000601883 -0.000682918 -0.000384266 -0.000341764 -0.000573131 -0.000198464 0 0 0 0 0 0 0 0 0 0 0 0 0 0 0 0 0 0 0 0 0 0 0 0 0 0 0 0 0 0 0 0 -0.000674572 -6.93056e-05 -0.000601943 -0.000776705 -0.000397435 -0.000342246 -2.08788e-05 -0.000198501 0 0 0 0 0 0 0 0 0 0 0 0 0 0 0 0 0 0 0 0 0 0 0 0 0 0 0 0 0 0 0 0 -0.000675551 -0.00020167 -0.000601968 -0.000919819 -0.000405465 -0.000343384 -6.29276e-05 -0.000198516 0 0 0 0 0 0 0 0 0 0 0 0 0 0 0 0 0 0 0 0 0 0 0 0 0 0 0 0 0 0 0 0 -0.000677749 -0.000318547 -0.000601979 -0.00112974 -0.000410086 -0.000345934 -0.000104542 -0.000198523 0 0 0 0 0 0 0 0 0 0 0 0 0 0 0 0 0 0 0 0 0 0 0 0 0 0 0 0 0 0 0 0 -0.000682441 -0.000414888 -0.000601987 -0.00142694 -0.000412599 -0.000351334 -0.000143707 -0.000198528 0 0 0 0 0 0 0 0 0 0 0 0 0 0 0 0 0 0 0 0 0 0 0 0 0 0 0 0 0 0 0 0 -0.000691967 -0.000489535 -0.000601999 -0.00182793 -0.000413893 -0.000362114 -0.000178211 -0.000198536 0 0 0 0 0 0 0 0 0 0 0 0 0 0 0 0 0 0 0 0 0 0 0 0 0 0 0 0 0 0 0 0 -0.000710364 -0.000544161 -0.000602028 -0.00230654 -0.000414523 -0.000382334 -0.000206508 -0.000198558 0 0 0 0 0 0 0 0 0 0 0 0 0 0 0 0 0 0 0 0 0 0 0 0 0 0 0 0 0 0 0 0 -0.000744241 -0.00058203 -0.000602104 -0.00263328 -0.000414815 -0.000417874 -0.000228105 -0.000198615 0 0 0 0 0 0 0 0 0 0 0 0 0 0 0 0 0 0 0 0 0 0 0 0 0 0 0 0 0 0 0 0 -0.000803952 -0.000606946 -0.000602295 -0.00186277 -0.000414943 -0.000476237 -0.000243474 -0.000198768 0 0 0 0 0 0 0 0 0 0 0 0 0 0 0 0 0 0 0 0 0 0 0 0 0 0 0 0 0 0 0 0 -0.000905403 -0.000622521 -0.000602762 -5.54662e-05 -0.000414997 -0.000565603 -0.000253698 -0.000199154 0 0 0 0 0 0 0 0 0 0 0 0 0 0 0 0 0 0 0 0 0 0 0 0 0 0 0 0 0 0 0 0 -0.00107338 -0.000631774 -0.000603852 -0.0001627 -0.000415019 -0.000693042 -0.000260073 -0.000200082 0 0 0 0 0 0 0 0 0 0 0 0 0 0 0 0 0 0 0 0 0 0 0 0 0 0 0 0 0 0 0 0 -0.00134861 -0.000637 -0.000606272 -0.000259918 -0.000415029 -0.000862042 -0.000263809 -0.000202204 0 0 0 0 0 0 0 0 0 0 0 0 0 0 0 0 0 0 0 0 0 0 0 0 0 0 0 0 0 0 0 0 -0.00180365 -0.000639805 -0.000611373 -0.000342554 -0.000415036 -0.00106858 -0.00026587 -0.000206795 0 0 0 0 0 0 0 0 0 0 0 0 0 0 0 0 0 0 0 0 0 0 0 0 0 0 0 0 0 0 0 0 -0.0025775 -0.000641236 -0.00062157 -0.000408509 -0.000415047 -0.00129127 -0.000266942 -0.000216166 0 0 0 0 0 0 0 0 0 0 0 0 0 0 0 0 0 0 0 0 0 0 0 0 0 0 0 0 0 0 0 0 -0.00394228 -0.000641931 -0.00064088 -0.000458043 -0.000415075 -0.00146249 -0.00026747 -0.000234147 0 0 0 0 0 0 0 0 0 0 0 0 0 0 0 0 0 0 0 0 0 0 0 0 0 0 0 0 0 0 0 0 -0.00633337 -0.000642252 -0.000675556 -0.000493125 -0.000415149 -0.00139877 -0.000267716 -0.000266436 0 0 0 0 0 0 0 0 0 0 0 0 0 0 0 0 0 0 0 0 0 0 0 0 0 0 0 0 0 0 0 0 -0.00911335 -0.000642393 -0.000734746 -0.000516598 -0.000415339 -0.000723721 -0.000267824 -0.000320417 0 0 0 0 0 0 0 0 0 0 0 0 0 0 0 0 0 0 0 0 0 0 0 0 0 0 0 0 0 0 0 0 -7.41579e-05 -0.000642452 -0.000831232 -0.000531456 -0.000415812 -2.86373e-05 -0.00026787 -0.000403925 0 0 0 0 0 0 0 0 0 0 0 0 0 0 0 0 0 0 0 0 0 0 0 0 0 0 0 0 0 0 0 0 -0.0002153 -0.000642477 -0.000982574 -0.000540362 -0.000416929 -8.56542e-05 -0.000267889 -0.000522605 0 0 0 0 0 0 0 0 0 0 0 0 0 0 0 0 0 0 0 0 0 0 0 0 0 0 0 0 0 0 0 0 -0.000338898 -0.000642488 -0.00121319 -0.000545421 -0.00041943 -0.000140725 -0.000267897 -0.000676041 0 0 0 0 0 0 0 0 0 0 0 0 0 0 0 0 0 0 0 0 0 0 0 0 0 0 0 0 0 0 0 0 -0.000439739 -0.000642495 -0.00155737 -0.000548145 -0.000424731 -0.000191132 -0.000267903 -0.00085279 0 0 0 0 0 0 0 0 0 0 0 0 0 0 0 0 0 0 0 0 0 0 0 0 0 0 0 0 0 0 0 0 -0.00051705 -0.000642507 -0.00205871 -0.000549537 -0.000435329 -0.000234377 -0.000267913 -0.0010223 0 0 0 0 0 0 0 0 0 0 0 0 0 0 0 0 0 0 0 0 0 0 0 0 0 0 0 0 0 0 0 0 -0.000573057 -0.000642535 -0.00274055 -0.000550213 -0.000455264 -0.00026903 -0.000267939 -0.00111709 0 0 0 0 0 0 0 0 0 0 0 0 0 0 0 0 0 0 0 0 0 0 0 0 0 0 0 0 0 0 0 0 -0.000611527 -0.000642608 -0.00342486 -0.000550524 -0.000490466 -0.000294972 -0.000268008 -0.00100016 0 0 0 0 0 0 0 0 0 0 0 0 0 0 0 0 0 0 0 0 0 0 0 0 0 0 0 0 0 0 0 0 -0.000636629 -0.000642792 -0.00289844 -0.000550661 -0.00054873 -0.00031315 -0.000268187 -0.000465809 0 0 0 0 0 0 0 0 0 0 0 0 0 0 0 0 0 0 0 0 0 0 0 0 0 0 0 0 0 0 0 0 -0.000652205 -0.000643241 -6.29439e-05 -0.000550718 -0.000639081 -0.000325098 -0.000268635 -1.42791e-05 0 0 0 0 0 0 0 0 0 0 0 0 0 0 0 0 0 0 0 0 0 0 0 0 0 0 0 0 0 0 0 0 -0.000661397 -0.000644292 -0.000183797 -0.000550742 -0.000770513 -0.000332482 -0.000269703 -4.33814e-05 0 0 0 0 0 0 0 0 0 0 0 0 0 0 0 0 0 0 0 0 0 0 0 0 0 0 0 0 0 0 0 0 -0.000671699 -0.000714933 -0.00054223 -0.000550873 -0.00169036 -0.000341244 -0.000341772 -0.000165761 0 0 0 0 0 0 0 0 0 0 0 0 0 0 0 0 0 0 0 0 0 0 0 0 0 0 0 0 0 0 0 0 -0.000671835 -0.000774631 -0.000566667 -0.000551061 -0.000945289 -0.000341368 -0.000398816 -0.000177855 0 0 0 0 0 0 0 0 0 0 0 0 0 0 0 0 0 0 0 0 0 0 0 0 0 0 0 0 0 0 0 0 -0.000671892 -0.000873988 -0.000582055 -0.000551523 -3.73442e-05 -0.00034142 -0.000486116 -0.000185965 0 0 0 0 0 0 0 0 0 0 0 0 0 0 0 0 0 0 0 0 0 0 0 0 0 0 0 0 0 0 0 0 -0.000671915 -0.00103425 -0.000591251 -0.000552608 -0.000110899 -0.000341442 -0.000609636 -0.000191046 0 0 0 0 0 0 0 0 0 0 0 0 0 0 0 0 0 0 0 0 0 0 0 0 0 0 0 0 0 0 0 0 -0.000671925 -0.00128784 -0.000596469 -0.000555027 -0.000180313 -0.000341451 -0.000770336 -0.000194029 0 0 0 0 0 0 0 0 0 0 0 0 0 0 0 0 0 0 0 0 0 0 0 0 0 0 0 0 0 0 0 0 -0.000671932 -0.00168662 -0.00059928 -0.000560143 -0.000242152 -0.000341458 -0.000959775 -0.000195675 0 0 0 0 0 0 0 0 0 0 0 0 0 0 0 0 0 0 0 0 0 0 0 0 0 0 0 0 0 0 0 0 -0.000671943 -0.00231422 -0.000600719 -0.000570383 -0.000293824 -0.000341469 -0.00115114 -0.000196529 0 0 0 0 0 0 0 0 0 0 0 0 0 0 0 0 0 0 0 0 0 0 0 0 0 0 0 0 0 0 0 0 -0.000671969 -0.00328568 -0.000601419 -0.000589745 -0.000334262 -0.000341497 -0.00127606 -0.000196949 0 0 0 0 0 0 0 0 0 0 0 0 0 0 0 0 0 0 0 0 0 0 0 0 0 0 0 0 0 0 0 0 -0.000672036 -0.00460081 -0.000601743 -0.000624328 -0.000363926 -0.000341572 -0.0011758 -0.000197143 0 0 0 0 0 0 0 0 0 0 0 0 0 0 0 0 0 0 0 0 0 0 0 0 0 0 0 0 0 0 0 0 -0.000672209 -0.00494935 -0.000601886 -0.000682738 -0.000384363 -0.000341766 -0.00057313 -0.000197229 0 0 0 0 0 0 0 0 0 0 0 0 0 0 0 0 0 0 0 0 0 0 0 0 0 0 0 0 0 0 0 0 -0.000672634 -6.93053e-05 -0.000601946 -0.000776309 -0.00039761 -0.000342248 -2.08788e-05 -0.000197265 0 0 0 0 0 0 0 0 0 0 0 0 0 0 0 0 0 0 0 0 0 0 0 0 0 0 0 0 0 0 0 0 -0.000673632 -0.000201669 -0.000601971 -0.000919289 -0.000405705 -0.000343386 -6.29275e-05 -0.00019728 0 0 0 0 0 0 0 0 0 0 0 0 0 0 0 0 0 0 0 0 0 0 0 0 0 0 0 0 0 0 0 0 -0.000675867 -0.000318546 -0.000601982 -0.0011292 -0.000410374 -0.000345936 -0.000104542 -0.000197286 0 0 0 0 0 0 0 0 0 0 0 0 0 0 0 0 0 0 0 0 0 0 0 0 0 0 0 0 0 0 0 0 -0.000680625 -0.000414886 -0.000601989 -0.00142649 -0.000412919 -0.000351337 -0.000143707 -0.000197291 0 0 0 0 0 0 0 0 0 0 0 0 0 0 0 0 0 0 0 0 0 0 0 0 0 0 0 0 0 0 0 0 -0.000690259 -0.000489534 -0.000602002 -0.00182763 -0.000414232 -0.000362117 -0.000178211 -0.000197299 0 0 0 0 0 0 0 0 0 0 0 0 0 0 0 0 0 0 0 0 0 0 0 0 0 0 0 0 0 0 0 0 -0.000708821 -0.000544159 -0.000602031 -0.00230638 -0.000414873 -0.000382338 -0.000206508 -0.00019732 0 0 0 0 0 0 0 0 0 0 0 0 0 0 0 0 0 0 0 0 0 0 0 0 0 0 0 0 0 0 0 0 -0.000742923 -0.000582028 -0.000602106 -0.00263322 -0.000415171 -0.000417879 -0.000228104 -0.000197376 0 0 0 0 0 0 0 0 0 0 0 0 0 0 0 0 0 0 0 0 0 0 0 0 0 0 0 0 0 0 0 0 -0.000802911 -0.000606945 -0.000602297 -0.00186275 -0.000415302 -0.000476244 -0.000243472 -0.000197524 0 0 0 0 0 0 0 0 0 0 0 0 0 0 0 0 0 0 0 0 0 0 0 0 0 0 0 0 0 0 0 0 -0.000904662 -0.00062252 -0.000602764 -5.57532e-05 -0.000415357 -0.00056561 -0.000253696 -0.000197899 0 0 0 0 0 0 0 0 0 0 0 0 0 0 0 0 0 0 0 0 0 0 0 0 0 0 0 0 0 0 0 0 -0.00107291 -0.000631773 -0.000603854 -0.000163533 -0.00041538 -0.00069305 -0.000260071 -0.000198803 0 0 0 0 0 0 0 0 0 0 0 0 0 0 0 0 0 0 0 0 0 0 0 0 0 0 0 0 0 0 0 0 -0.00134837 -0.000636999 -0.000606274 -0.000261207 -0.00041539 -0.00086205 -0.000263807 -0.000200877 0 0 0 0 0 0 0 0 0 0 0 0 0 0 0 0 0 0 0 0 0 0 0 0 0 0 0 0 0 0 0 0 -0.00180355 -0.000639804 -0.000611375 -0.00034416 -0.000415397 -0.00106859 -0.000265867 -0.000205376 0 0 0 0 0 0 0 0 0 0 0 0 0 0 0 0 0 0 0 0 0 0 0 0 0 0 0 0 0 0 0 0 -0.00257748 -0.000641235 -0.000621571 -0.00041028 -0.000415408 -0.00129128 -0.00026694 -0.000214587 0 0 0 0 0 0 0 0 0 0 0 0 0 0 0 0 0 0 0 0 0 0 0 0 0 0 0 0 0 0 0 0 -0.00394228 -0.00064193 -0.000640881 -0.000459849 -0.000415437 -0.00146249 -0.000267468 -0.000232314 0 0 0 0 0 0 0 0 0 0 0 0 0 0 0 0 0 0 0 0 0 0 0 0 0 0 0 0 0 0 0 0 -0.00633337 -0.000642251 -0.000675557 -0.000494876 -0.000415513 -0.00139877 -0.000267713 -0.000264249 0 0 0 0 0 0 0 0 0 0 0 0 0 0 0 0 0 0 0 0 0 0 0 0 0 0 0 0 0 0 0 0 -0.00911335 -0.000642392 -0.000734746 -0.000518249 -0.000415709 -0.000723721 -0.000267822 -0.000317812 0 0 0 0 0 0 0 0 0 0 0 0 0 0 0 0 0 0 0 0 0 0 0 0 0 0 0 0 0 0 0 0 -7.39475e-05 -0.000642452 -0.000831231 -0.000532999 -0.000416193 -2.86373e-05 -0.000267868 -0.000400932 0 0 0 0 0 0 0 0 0 0 0 0 0 0 0 0 0 0 0 0 0 0 0 0 0 0 0 0 0 0 0 0 -0.000214705 -0.000642476 -0.000982572 -0.00054181 -0.000417333 -8.56542e-05 -0.000267887 -0.000519408 0 0 0 0 0 0 0 0 0 0 0 0 0 0 0 0 0 0 0 0 0 0 0 0 0 0 0 0 0 0 0 0 -0.000338003 -0.000642487 -0.00121319 -0.000546796 -0.00041988 -0.000140725 -0.000267895 -0.000672964 0 0 0 0 0 0 0 0 0 0 0 0 0 0 0 0 0 0 0 0 0 0 0 0 0 0 0 0 0 0 0 0 -0.000438647 -0.000642494 -0.00155737 -0.000549471 -0.000425263 -0.000191132 -0.000267901 -0.000850192 0 0 0 0 0 0 0 0 0 0 0 0 0 0 0 0 0 0 0 0 0 0 0 0 0 0 0 0 0 0 0 0 -0.000515855 -0.000642506 -0.00205871 -0.000550832 -0.000435995 -0.000234377 -0.000267911 -0.00102043 0 0 0 0 0 0 0 0 0 0 0 0 0 0 0 0 0 0 0 0 0 0 0 0 0 0 0 0 0 0 0 0 -0.00057183 -0.000642534 -0.00274054 -0.00055149 -0.000456124 -0.00026903 -0.000267936 -0.00111597 0 0 0 0 0 0 0 0 0 0 0 0 0 0 0 0 0 0 0 0 0 0 0 0 0 0 0 0 0 0 0 0 -0.000610311 -0.000642607 -0.00342486 -0.000551791 -0.000491572 -0.000294972 -0.000268005 -0.000999635 0 0 0 0 0 0 0 0 0 0 0 0 0 0 0 0 0 0 0 0 0 0 0 0 0 0 0 0 0 0 0 0 -0.000635447 -0.000642791 -0.00289844 -0.000551923 -0.000550095 -0.00031315 -0.000268184 -0.00046567 0 0 0 0 0 0 0 0 0 0 0 0 0 0 0 0 0 0 0 0 0 0 0 0 0 0 0 0 0 0 0 0 -0.00065106 -0.000643241 -6.29461e-05 -0.000551979 -0.000640644 -0.000325099 -0.000268633 -1.41479e-05 0 0 0 0 0 0 0 0 0 0 0 0 0 0 0 0 0 0 0 0 0 0 0 0 0 0 0 0 0 0 0 0 -0.000660286 -0.000644291 -0.000183803 -0.000552001 -0.00077213 -0.000332482 -0.0002697 -4.29949e-05 0 0 0 0 0 0 0 0 0 0 0 0 0 0 0 0 0 0 0 0 0 0 0 0 0 0 0 0 0 0 0 0 -0.000665472 -0.00064663 -0.000291774 -0.000552011 -0.000951651 -0.00033678 -0.00027211 -7.22849e-05 0 0 0 0 0 0 0 0 0 0 0 0 0 0 0 0 0 0 0 0 0 0 0 0 0 0 0 0 0 0 0 0 -0.000668244 -0.000651577 -0.000382018 -0.000552018 -0.00118117 -0.00033914 -0.000277255 -0.000100631 0 0 0 0 0 0 0 0 0 0 0 0 0 0 0 0 0 0 0 0 0 0 0 0 0 0 0 0 0 0 0 0 -0.000669654 -0.000661517 -0.000452908 -0.000552029 -0.00144722 -0.000340364 -0.000287606 -0.000126232 0 0 0 0 0 0 0 0 0 0 0 0 0 0 0 0 0 0 0 0 0 0 0 0 0 0 0 0 0 0 0 0 -0.000670336 -0.000680488 -0.000505435 -0.000552056 -0.00168661 -0.000340965 -0.000307167 -0.000147651 0 0 0 0 0 0 0 0 0 0 0 0 0 0 0 0 0 0 0 0 0 0 0 0 0 0 0 0 0 0 0 0 -0.000670879 -0.00128784 -0.000596478 -0.000556153 -0.000180239 -0.000341452 -0.000770327 -0.000192008 0 0 0 0 0 0 0 0 0 0 0 0 0 0 0 0 0 0 0 0 0 0 0 0 0 0 0 0 0 0 0 0 -0.000670886 -0.00168662 -0.000599289 -0.000561151 -0.000242065 -0.000341458 -0.000959767 -0.000193607 0 0 0 0 0 0 0 0 0 0 0 0 0 0 0 0 0 0 0 0 0 0 0 0 0 0 0 0 0 0 0 0 -0.000670897 -0.00231422 -0.000600727 -0.000571198 -0.000293747 -0.00034147 -0.00115113 -0.000194435 0 0 0 0 0 0 0 0 0 0 0 0 0 0 0 0 0 0 0 0 0 0 0 0 0 0 0 0 0 0 0 0 -0.000670923 -0.00328568 -0.000601427 -0.00059028 -0.000334216 -0.000341498 -0.00127606 -0.000194839 0 0 0 0 0 0 0 0 0 0 0 0 0 0 0 0 0 0 0 0 0 0 0 0 0 0 0 0 0 0 0 0 -0.000670992 -0.00460081 -0.000601751 -0.000624504 -0.000363925 -0.000341573 -0.0011758 -0.000195026 0 0 0 0 0 0 0 0 0 0 0 0 0 0 0 0 0 0 0 0 0 0 0 0 0 0 0 0 0 0 0 0 -0.000671167 -0.00494935 -0.000601893 -0.000682517 -0.000384411 -0.000341767 -0.00057313 -0.000195108 0 0 0 0 0 0 0 0 0 0 0 0 0 0 0 0 0 0 0 0 0 0 0 0 0 0 0 0 0 0 0 0 -0.000671597 -6.93052e-05 -0.000601954 -0.000775733 -0.000397704 -0.000342249 -2.08786e-05 -0.000195142 0 0 0 0 0 0 0 0 0 0 0 0 0 0 0 0 0 0 0 0 0 0 0 0 0 0 0 0 0 0 0 0 -0.000672606 -0.000201669 -0.000601978 -0.000918493 -0.000405836 -0.000343387 -6.29271e-05 -0.000195156 0 0 0 0 0 0 0 0 0 0 0 0 0 0 0 0 0 0 0 0 0 0 0 0 0 0 0 0 0 0 0 0 -0.000674861 -0.000318546 -0.000601989 -0.00112837 -0.000410532 -0.000345937 -0.000104541 -0.000195162 0 0 0 0 0 0 0 0 0 0 0 0 0 0 0 0 0 0 0 0 0 0 0 0 0 0 0 0 0 0 0 0 -0.000679656 -0.000414886 -0.000601997 -0.00142581 -0.000413095 -0.000351338 -0.000143706 -0.000195166 0 0 0 0 0 0 0 0 0 0 0 0 0 0 0 0 0 0 0 0 0 0 0 0 0 0 0 0 0 0 0 0 -0.000689351 -0.000489534 -0.000602009 -0.00182717 -0.000414418 -0.000362118 -0.000178209 -0.000195174 0 0 0 0 0 0 0 0 0 0 0 0 0 0 0 0 0 0 0 0 0 0 0 0 0 0 0 0 0 0 0 0 -0.000708005 -0.000544159 -0.000602039 -0.00230615 -0.000415066 -0.00038234 -0.000206505 -0.000195194 0 0 0 0 0 0 0 0 0 0 0 0 0 0 0 0 0 0 0 0 0 0 0 0 0 0 0 0 0 0 0 0 -0.000742233 -0.000582028 -0.000602114 -0.00263314 -0.000415367 -0.000417881 -0.0002281 -0.000195247 0 0 0 0 0 0 0 0 0 0 0 0 0 0 0 0 0 0 0 0 0 0 0 0 0 0 0 0 0 0 0 0 -0.000802374 -0.000606945 -0.000602305 -0.00186273 -0.0004155 -0.000476246 -0.000243467 -0.000195387 0 0 0 0 0 0 0 0 0 0 0 0 0 0 0 0 0 0 0 0 0 0 0 0 0 0 0 0 0 0 0 0 -0.00090429 -0.00062252 -0.000602772 -5.619e-05 -0.000415556 -0.000565613 -0.00025369 -0.000195744 0 0 0 0 0 0 0 0 0 0 0 0 0 0 0 0 0 0 0 0 0 0 0 0 0 0 0 0 0 0 0 0 -0.0010727 -0.000631773 -0.000603861 -0.000164802 -0.000415579 -0.000693053 -0.000260065 -0.00019661 0 0 0 0 0 0 0 0 0 0 0 0 0 0 0 0 0 0 0 0 0 0 0 0 0 0 0 0 0 0 0 0 -0.00134827 -0.000636998 -0.000606281 -0.000263175 -0.000415589 -0.000862053 -0.0002638 -0.000198605 0 0 0 0 0 0 0 0 0 0 0 0 0 0 0 0 0 0 0 0 0 0 0 0 0 0 0 0 0 0 0 0 -0.00180352 -0.000639803 -0.000611382 -0.00034662 -0.000415596 -0.00106859 -0.00026586 -0.000202954 0 0 0 0 0 0 0 0 0 0 0 0 0 0 0 0 0 0 0 0 0 0 0 0 0 0 0 0 0 0 0 0 -0.00257748 -0.000641235 -0.000621577 -0.000413004 -0.000415608 -0.00129128 -0.000266933 -0.000211905 0 0 0 0 0 0 0 0 0 0 0 0 0 0 0 0 0 0 0 0 0 0 0 0 0 0 0 0 0 0 0 0 -0.00394229 -0.00064193 -0.000640884 -0.000462636 -0.000415637 -0.00146249 -0.00026746 -0.000229222 0 0 0 0 0 0 0 0 0 0 0 0 0 0 0 0 0 0 0 0 0 0 0 0 0 0 0 0 0 0 0 0 -0.00633338 -0.000642251 -0.000675558 -0.00049759 -0.000415714 -0.00139877 -0.000267706 -0.000260585 0 0 0 0 0 0 0 0 0 0 0 0 0 0 0 0 0 0 0 0 0 0 0 0 0 0 0 0 0 0 0 0 -0.00911335 -0.000642392 -0.000734745 -0.000520821 -0.000415913 -0.000723721 -0.000267814 -0.000313471 0 0 0 0 0 0 0 0 0 0 0 0 0 0 0 0 0 0 0 0 0 0 0 0 0 0 0 0 0 0 0 0 -7.38409e-05 -0.000642451 -0.000831228 -0.000535413 -0.000416403 -2.86373e-05 -0.00026786 -0.000395971 0 0 0 0 0 0 0 0 0 0 0 0 0 0 0 0 0 0 0 0 0 0 0 0 0 0 0 0 0 0 0 0 -0.000214403 -0.000642476 -0.000982568 -0.000544085 -0.000417556 -8.56542e-05 -0.000267879 -0.000514128 0 0 0 0 0 0 0 0 0 0 0 0 0 0 0 0 0 0 0 0 0 0 0 0 0 0 0 0 0 0 0 0 -0.000337551 -0.000642487 -0.00121319 -0.000548964 -0.00042013 -0.000140725 -0.000267887 -0.000667897 0 0 0 0 0 0 0 0 0 0 0 0 0 0 0 0 0 0 0 0 0 0 0 0 0 0 0 0 0 0 0 0 -0.000438097 -0.000642494 -0.00155736 -0.000551565 -0.000425559 -0.000191132 -0.000267893 -0.00084593 0 0 0 0 0 0 0 0 0 0 0 0 0 0 0 0 0 0 0 0 0 0 0 0 0 0 0 0 0 0 0 0 -0.000515255 -0.000642506 -0.0020587 -0.00055288 -0.000436367 -0.000234377 -0.000267903 -0.00101737 0 0 0 0 0 0 0 0 0 0 0 0 0 0 0 0 0 0 0 0 0 0 0 0 0 0 0 0 0 0 0 0 -0.000571216 -0.000642534 -0.00274054 -0.000553511 -0.000456606 -0.00026903 -0.000267929 -0.00111415 0 0 0 0 0 0 0 0 0 0 0 0 0 0 0 0 0 0 0 0 0 0 0 0 0 0 0 0 0 0 0 0 -0.000609706 -0.000642607 -0.00342486 -0.000553799 -0.000492196 -0.000294972 -0.000267997 -0.000998788 0 0 0 0 0 0 0 0 0 0 0 0 0 0 0 0 0 0 0 0 0 0 0 0 0 0 0 0 0 0 0 0 -0.00063486 -0.000642791 -0.00289844 -0.000553924 -0.000550868 -0.00031315 -0.000268177 -0.000465447 0 0 0 0 0 0 0 0 0 0 0 0 0 0 0 0 0 0 0 0 0 0 0 0 0 0 0 0 0 0 0 0 -0.000650494 -0.00064324 -6.2952e-05 -0.000553975 -0.000641532 -0.000325099 -0.000268625 -1.39342e-05 0 0 0 0 0 0 0 0 0 0 0 0 0 0 0 0 0 0 0 0 0 0 0 0 0 0 0 0 0 0 0 0 -0.000659738 -0.000644291 -0.00018382 -0.000553997 -0.000773053 -0.000332482 -0.000269692 -4.23649e-05 0 0 0 0 0 0 0 0 0 0 0 0 0 0 0 0 0 0 0 0 0 0 0 0 0 0 0 0 0 0 0 0 -0.000664937 -0.00064663 -0.0002918 -0.000554006 -0.000952498 -0.00033678 -0.000272102 -7.12584e-05 0 0 0 0 0 0 0 0 0 0 0 0 0 0 0 0 0 0 0 0 0 0 0 0 0 0 0 0 0 0 0 0 -0.000667719 -0.000651577 -0.000382049 -0.000554012 -0.00118184 -0.00033914 -0.000277246 -9.92253e-05 0 0 0 0 0 0 0 0 0 0 0 0 0 0 0 0 0 0 0 0 0 0 0 0 0 0 0 0 0 0 0 0 -0.000669134 -0.000661517 -0.000452942 -0.000554023 -0.00144767 -0.000340364 -0.000287595 -0.000124462 0 0 0 0 0 0 0 0 0 0 0 0 0 0 0 0 0 0 0 0 0 0 0 0 0 0 0 0 0 0 0 0 -0.000669819 -0.000680488 -0.000505468 -0.000554048 -0.00168685 -0.000340966 -0.000307154 -0.000145535 0 0 0 0 0 0 0 0 0 0 0 0 0 0 0 0 0 0 0 0 0 0 0 0 0 0 0 0 0 0 0 0 -0.000670135 -0.000714933 -0.000542273 -0.000554113 -0.00169063 -0.000341245 -0.00034175 -0.000161806 0 0 0 0 0 0 0 0 0 0 0 0 0 0 0 0 0 0 0 0 0 0 0 0 0 0 0 0 0 0 0 0 -0.000670274 -0.000774632 -0.000566707 -0.000554282 -0.000945354 -0.000341369 -0.000398788 -0.00017345 0 0 0 0 0 0 0 0 0 0 0 0 0 0 0 0 0 0 0 0 0 0 0 0 0 0 0 0 0 0 0 0 -0.000670332 -0.000873988 -0.000582092 -0.000554701 -3.73202e-05 -0.000341421 -0.000486083 -0.000181201 0 0 0 0 0 0 0 0 0 0 0 0 0 0 0 0 0 0 0 0 0 0 0 0 0 0 0 0 0 0 0 0 -0.000670356 -0.00103425 -0.000591286 -0.000555698 -0.000110824 -0.000341443 -0.0006096 -0.000186015 0 0 