# vtk DataFile Version 2.0
Presion
ASCII

DATASET STRUCTURED_GRID
DIMENSIONS   40   40   30

POINTS   48000   double
0.0125   0.0125   0.0166667
0.0375   0.0125   0.0166667
0.0625   0.0125   0.0166667
0.0875   0.0125   0.0166667
0.1125   0.0125   0.0166667
0.1375   0.0125   0.0166667
0.1625   0.0125   0.0166667
0.1875   0.0125   0.0166667
0.2125   0.0125   0.0166667
0.2375   0.0125   0.0166667
0.2625   0.0125   0.0166667
0.2875   0.0125   0.0166667
0.3125   0.0125   0.0166667
0.3375   0.0125   0.0166667
0.3625   0.0125   0.0166667
0.3875   0.0125   0.0166667
0.4125   0.0125   0.0166667
0.4375   0.0125   0.0166667
0.4625   0.0125   0.0166667
0.4875   0.0125   0.0166667
0.5125   0.0125   0.0166667
0.5375   0.0125   0.0166667
0.5625   0.0125   0.0166667
0.5875   0.0125   0.0166667
0.6125   0.0125   0.0166667
0.6375   0.0125   0.0166667
0.6625   0.0125   0.0166667
0.6875   0.0125   0.0166667
0.7125   0.0125   0.0166667
0.7375   0.0125   0.0166667
0.7625   0.0125   0.0166667
0.7875   0.0125   0.0166667
0.8125   0.0125   0.0166667
0.8375   0.0125   0.0166667
0.8625   0.0125   0.0166667
0.8875   0.0125   0.0166667
0.9125   0.0125   0.0166667
0.9375   0.0125   0.0166667
0.9625   0.0125   0.0166667
0.9875   0.0125   0.0166667
0.0125   0.0375   0.0166667
0.0375   0.0375   0.0166667
0.0625   0.0375   0.0166667
0.0875   0.0375   0.0166667
0.1125   0.0375   0.0166667
0.1375   0.0375   0.0166667
0.1625   0.0375   0.0166667
0.1875   0.0375   0.0166667
0.2125   0.0375   0.0166667
0.2375   0.0375   0.0166667
0.2625   0.0375   0.0166667
0.2875   0.0375   0.0166667
0.3125   0.0375   0.0166667
0.3375   0.0375   0.0166667
0.3625   0.0375   0.0166667
0.3875   0.0375   0.0166667
0.4125   0.0375   0.0166667
0.4375   0.0375   0.0166667
0.4625   0.0375   0.0166667
0.4875   0.0375   0.0166667
0.5125   0.0375   0.0166667
0.5375   0.0375   0.0166667
0.5625   0.0375   0.0166667
0.5875   0.0375   0.0166667
0.6125   0.0375   0.0166667
0.6375   0.0375   0.0166667
0.6625   0.0375   0.0166667
0.6875   0.0375   0.0166667
0.7125   0.0375   0.0166667
0.7375   0.0375   0.0166667
0.7625   0.0375   0.0166667
0.7875   0.0375   0.0166667
0.8125   0.0375   0.0166667
0.8375   0.0375   0.0166667
0.8625   0.0375   0.0166667
0.8875   0.0375   0.0166667
0.9125   0.0375   0.0166667
0.9375   0.0375   0.0166667
0.9625   0.0375   0.0166667
0.9875   0.0375   0.0166667
0.0125   0.0625   0.0166667
0.0375   0.0625   0.0166667
0.0625   0.0625   0.0166667
0.0875   0.0625   0.0166667
0.1125   0.0625   0.0166667
0.1375   0.0625   0.0166667
0.1625   0.0625   0.0166667
0.1875   0.0625   0.0166667
0.2125   0.0625   0.0166667
0.2375   0.0625   0.0166667
0.2625   0.0625   0.0166667
0.2875   0.0625   0.0166667
0.3125   0.0625   0.0166667
0.3375   0.0625   0.0166667
0.3625   0.0625   0.0166667
0.3875   0.0625   0.0166667
0.4125   0.0625   0.0166667
0.4375   0.0625   0.0166667
0.4625   0.0625   0.0166667
0.4875   0.0625   0.0166667
0.5125   0.0625   0.0166667
0.5375   0.0625   0.0166667
0.5625   0.0625   0.0166667
0.5875   0.0625   0.0166667
0.6125   0.0625   0.0166667
0.6375   0.0625   0.0166667
0.6625   0.0625   0.0166667
0.6875   0.0625   0.0166667
0.7125   0.0625   0.0166667
0.7375   0.0625   0.0166667
0.7625   0.0625   0.0166667
0.7875   0.0625   0.0166667
0.8125   0.0625   0.0166667
0.8375   0.0625   0.0166667
0.8625   0.0625   0.0166667
0.8875   0.0625   0.0166667
0.9125   0.0625   0.0166667
0.9375   0.0625   0.0166667
0.9625   0.0625   0.0166667
0.9875   0.0625   0.0166667
0.0125   0.0875   0.0166667
0.0375   0.0875   0.0166667
0.0625   0.0875   0.0166667
0.0875   0.0875   0.0166667
0.1125   0.0875   0.0166667
0.1375   0.0875   0.0166667
0.1625   0.0875   0.0166667
0.1875   0.0875   0.0166667
0.2125   0.0875   0.0166667
0.2375   0.0875   0.0166667
0.2625   0.0875   0.0166667
0.2875   0.0875   0.0166667
0.3125   0.0875   0.0166667
0.3375   0.0875   0.0166667
0.3625   0.0875   0.0166667
0.3875   0.0875   0.0166667
0.4125   0.0875   0.0166667
0.4375   0.0875   0.0166667
0.4625   0.0875   0.0166667
0.4875   0.0875   0.0166667
0.5125   0.0875   0.0166667
0.5375   0.0875   0.0166667
0.5625   0.0875   0.0166667
0.5875   0.0875   0.0166667
0.6125   0.0875   0.0166667
0.6375   0.0875   0.0166667
0.6625   0.0875   0.0166667
0.6875   0.0875   0.0166667
0.7125   0.0875   0.0166667
0.7375   0.0875   0.0166667
0.7625   0.0875   0.0166667
0.7875   0.0875   0.0166667
0.8125   0.0875   0.0166667
0.8375   0.0875   0.0166667
0.8625   0.0875   0.0166667
0.8875   0.0875   0.0166667
0.9125   0.0875   0.0166667
0.9375   0.0875   0.0166667
0.9625   0.0875   0.0166667
0.9875   0.0875   0.0166667
0.0125   0.1125   0.0166667
0.0375   0.1125   0.0166667
0.0625   0.1125   0.0166667
0.0875   0.1125   0.0166667
0.1125   0.1125   0.0166667
0.1375   0.1125   0.0166667
0.1625   0.1125   0.0166667
0.1875   0.1125   0.0166667
0.2125   0.1125   0.0166667
0.2375   0.1125   0.0166667
0.2625   0.1125   0.0166667
0.2875   0.1125   0.0166667
0.3125   0.1125   0.0166667
0.3375   0.1125   0.0166667
0.3625   0.1125   0.0166667
0.3875   0.1125   0.0166667
0.4125   0.1125   0.0166667
0.4375   0.1125   0.0166667
0.4625   0.1125   0.0166667
0.4875   0.1125   0.0166667
0.5125   0.1125   0.0166667
0.5375   0.1125   0.0166667
0.5625   0.1125   0.0166667
0.5875   0.1125   0.0166667
0.6125   0.1125   0.0166667
0.6375   0.1125   0.0166667
0.6625   0.1125   0.0166667
0.6875   0.1125   0.0166667
0.7125   0.1125   0.0166667
0.7375   0.1125   0.0166667
0.7625   0.1125   0.0166667
0.7875   0.1125   0.0166667
0.8125   0.1125   0.0166667
0.8375   0.1125   0.0166667
0.8625   0.1125   0.0166667
0.8875   0.1125   0.0166667
0.9125   0.1125   0.0166667
0.9375   0.1125   0.0166667
0.9625   0.1125   0.0166667
0.9875   0.1125   0.0166667
0.0125   0.1375   0.0166667
0.0375   0.1375   0.0166667
0.0625   0.1375   0.0166667
0.0875   0.1375   0.0166667
0.1125   0.1375   0.0166667
0.1375   0.1375   0.0166667
0.1625   0.1375   0.0166667
0.1875   0.1375   0.0166667
0.2125   0.1375   0.0166667
0.2375   0.1375   0.0166667
0.2625   0.1375   0.0166667
0.2875   0.1375   0.0166667
0.3125   0.1375   0.0166667
0.3375   0.1375   0.0166667
0.3625   0.1375   0.0166667
0.3875   0.1375   0.0166667
0.4125   0.1375   0.0166667
0.4375   0.1375   0.0166667
0.4625   0.1375   0.0166667
0.4875   0.1375   0.0166667
0.5125   0.1375   0.0166667
0.5375   0.1375   0.0166667
0.5625   0.1375   0.0166667
0.5875   0.1375   0.0166667
0.6125   0.1375   0.0166667
0.6375   0.1375   0.0166667
0.6625   0.1375   0.0166667
0.6875   0.1375   0.0166667
0.7125   0.1375   0.0166667
0.7375   0.1375   0.0166667
0.7625   0.1375   0.0166667
0.7875   0.1375   0.0166667
0.8125   0.1375   0.0166667
0.8375   0.1375   0.0166667
0.8625   0.1375   0.0166667
0.8875   0.1375   0.0166667
0.9125   0.1375   0.0166667
0.9375   0.1375   0.0166667
0.9625   0.1375   0.0166667
0.9875   0.1375   0.0166667
0.0125   0.1625   0.0166667
0.0375   0.1625   0.0166667
0.0625   0.1625   0.0166667
0.0875   0.1625   0.0166667
0.1125   0.1625   0.0166667
0.1375   0.1625   0.0166667
0.1625   0.1625   0.0166667
0.1875   0.1625   0.0166667
0.2125   0.1625   0.0166667
0.2375   0.1625   0.0166667
0.2625   0.1625   0.0166667
0.2875   0.1625   0.0166667
0.3125   0.1625   0.0166667
0.3375   0.1625   0.0166667
0.3625   0.1625   0.0166667
0.3875   0.1625   0.0166667
0.4125   0.1625   0.0166667
0.4375   0.1625   0.0166667
0.4625   0.1625   0.0166667
0.4875   0.1625   0.0166667
0.5125   0.1625   0.0166667
0.5375   0.1625   0.0166667
0.5625   0.1625   0.0166667
0.5875   0.1625   0.0166667
0.6125   0.1625   0.0166667
0.6375   0.1625   0.0166667
0.6625   0.1625   0.0166667
0.6875   0.1625   0.0166667
0.7125   0.1625   0.0166667
0.7375   0.1625   0.0166667
0.7625   0.1625   0.0166667
0.7875   0.1625   0.0166667
0.8125   0.1625   0.0166667
0.8375   0.1625   0.0166667
0.8625   0.1625   0.0166667
0.8875   0.1625   0.0166667
0.9125   0.1625   0.0166667
0.9375   0.1625   0.0166667
0.9625   0.1625   0.0166667
0.9875   0.1625   0.0166667
0.0125   0.1875   0.0166667
0.0375   0.1875   0.0166667
0.0625   0.1875   0.0166667
0.0875   0.1875   0.0166667
0.1125   0.1875   0.0166667
0.1375   0.1875   0.0166667
0.1625   0.1875   0.0166667
0.1875   0.1875   0.0166667
0.2125   0.1875   0.0166667
0.2375   0.1875   0.0166667
0.2625   0.1875   0.0166667
0.2875   0.1875   0.0166667
0.3125   0.1875   0.0166667
0.3375   0.1875   0.0166667
0.3625   0.1875   0.0166667
0.3875   0.1875   0.0166667
0.4125   0.1875   0.0166667
0.4375   0.1875   0.0166667
0.4625   0.1875   0.0166667
0.4875   0.1875   0.0166667
0.5125   0.1875   0.0166667
0.5375   0.1875   0.0166667
0.5625   0.1875   0.0166667
0.5875   0.1875   0.0166667
0.6125   0.1875   0.0166667
0.6375   0.1875   0.0166667
0.6625   0.1875   0.0166667
0.6875   0.1875   0.0166667
0.7125   0.1875   0.0166667
0.7375   0.1875   0.0166667
0.7625   0.1875   0.0166667
0.7875   0.1875   0.0166667
0.8125   0.1875   0.0166667
0.8375   0.1875   0.0166667
0.8625   0.1875   0.0166667
0.8875   0.1875   0.0166667
0.9125   0.1875   0.0166667
0.9375   0.1875   0.0166667
0.9625   0.1875   0.0166667
0.9875   0.1875   0.0166667
0.0125   0.2125   0.0166667
0.0375   0.2125   0.0166667
0.0625   0.2125   0.0166667
0.0875   0.2125   0.0166667
0.1125   0.2125   0.0166667
0.1375   0.2125   0.0166667
0.1625   0.2125   0.0166667
0.1875   0.2125   0.0166667
0.2125   0.2125   0.0166667
0.2375   0.2125   0.0166667
0.2625   0.2125   0.0166667
0.2875   0.2125   0.0166667
0.3125   0.2125   0.0166667
0.3375   0.2125   0.0166667
0.3625   0.2125   0.0166667
0.3875   0.2125   0.0166667
0.4125   0.2125   0.0166667
0.4375   0.2125   0.0166667
0.4625   0.2125   0.0166667
0.4875   0.2125   0.0166667
0.5125   0.2125   0.0166667
0.5375   0.2125   0.0166667
0.5625   0.2125   0.0166667
0.5875   0.2125   0.0166667
0.6125   0.2125   0.0166667
0.6375   0.2125   0.0166667
0.6625   0.2125   0.0166667
0.6875   0.2125   0.0166667
0.7125   0.2125   0.0166667
0.7375   0.2125   0.0166667
0.7625   0.2125   0.0166667
0.7875   0.2125   0.0166667
[...]
POINT_DATA   48000
SCALARS Presion double
LOOKUP_TABLE   Presion

0 0 0 0 0 0 0 0 0 0 0 0 0 0 0 0 0 0 0 0 0 0 0 0 0 0 0 0 0 0 0 -0.000838221 -0.000775873 -0.000375838 -0.000580407 -0.000744857 -0.00023442 -0.000148482 -3.43716e-05 0 0 0 0 0 0 0 0 0 0 0 0 0 0 0 0 0 0 0 0 0 0 0 0 0 0 0 0 0 0 0 0 -0.000839186 -0.000776996 -0.000484609 -0.000580407 -0.000995605 -0.000234935 -0.000149088 -4.83185e-05 0 0 0 0 0 0 0 0 0 0 0 0 0 0 0 0 0 0 0 0 0 0 0 0 0 0 0 0 0 0 0 0 -0.000839564 -0.000779979 -0.000564008 -0.000580408 -0.00130056 -0.000235138 -0.000150795 -6.04634e-05 0 0 0 0 0 0 0 0 0 0 0 0 0 0 0 0 0 0 0 0 0 0 0 0 0 0 0 0 0 0 0 0 -0.000839703 -0.000787353 -0.000617334 -0.000580409 -0.00158254 -0.000235213 -0.000155272 -6.98538e-05 0 0 0 0 0 0 0 0 0 0 0 0 0 0 0 0 0 0 0 0 0 0 0 0 0 0 0 0 0 0 0 0 -0.000839751 -0.000804276 -0.000650378 -0.000580412 -0.00162313 -0.000235238 -0.000166147 -7.63187e-05 0 0 0 0 0 0 0 0 0 0 0 0 0 0 0 0 0 0 0 0 0 0 0 0 0 0 0 0 0 0 0 0 -0.000839766 -0.000840298 -0.00066931 -0.000580424 -0.000916581 -0.000235247 -0.000190478 -8.03071e-05 0 0 0 0 0 0 0 0 0 0 0 0 0 0 0 0 0 0 0 0 0 0 0 0 0 0 0 0 0 0 0 0 -0.000839771 -0.000911488 -0.000679355 -0.000580464 -3.33154e-05 -0.000235249 -0.0002402 -8.25278e-05 0 0 0 0 0 0 0 0 0 0 0 0 0 0 0 0 0 0 0 0 0 0 0 0 0 0 0 0 0 0 0 0 -0.000839772 -0.00104269 -0.000684295 -0.000580591 -9.98699e-05 -0.00023525 -0.000331899 -8.36514e-05 0 0 0 0 0 0 0 0 0 0 0 0 0 0 0 0 0 0 0 0 0 0 0 0 0 0 0 0 0 0 0 0 -0.000839773 -0.00127039 -0.00068655 -0.000580981 -0.000163329 -0.00023525 -0.000481871 -8.41712e-05 0 0 0 0 0 0 0 0 0 0 0 0 0 0 0 0 0 0 0 0 0 0 0 0 0 0 0 0 0 0 0 0 -0.000839773 -0.00164823 -0.000687507 -0.0005821 -0.000218969 -0.00023525 -0.000693663 -8.43922e-05 0 0 0 0 0 0 0 0 0 0 0 0 0 0 0 0 0 0 0 0 0 0 0 0 0 0 0 0 0 0 0 0 -0.000839774 -0.00225726 -0.000687885 -0.000585089 -0.000263198 -0.000235251 -0.000938663 -8.4479e-05 0 0 0 0 0 0 0 0 0 0 0 0 0 0 0 0 0 0 0 0 0 0 0 0 0 0 0 0 0 0 0 0 -0.000839775 -0.00320636 -0.000688024 -0.000592503 -0.000294999 -0.000235251 -0.0011314 -8.45108e-05 0 0 0 0 0 0 0 0 0 0 0 0 0 0 0 0 0 0 0 0 0 0 0 0 0 0 0 0 0 0 0 0 -0.000839778 -0.00449179 -0.000688072 -0.000609488 -0.000315735 -0.000235254 -0.00109409 -8.45216e-05 0 0 0 0 0 0 0 0 0 0 0 0 0 0 0 0 0 0 0 0 0 0 0 0 0 0 0 0 0 0 0 0 -0.00083979 -0.00483266 -0.000688088 -0.000645305 -0.000328049 -0.000235261 -0.000545599 -8.45252e-05 0 0 0 0 0 0 0 0 0 0 0 0 0 0 0 0 0 0 0 0 0 0 0 0 0 0 0 0 0 0 0 0 -0.000839828 -9.69292e-05 -0.000688093 -0.000714607 -0.000334737 -0.000235287 -1.2256e-05 -8.45263e-05 0 0 0 0 0 0 0 0 0 0 0 0 0 0 0 0 0 0 0 0 0 0 0 0 0 0 0 0 0 0 0 0 -0.00083995 -0.000279911 -0.000688094 -0.000837438 -0.000338072 -0.000235373 -3.76052e-05 -8.45267e-05 0 0 0 0 0 0 0 0 0 0 0 0 0 0 0 0 0 0 0 0 0 0 0 0 0 0 0 0 0 0 0 0 -0.000840322 -0.000435886 -0.000688095 -0.00103709 -0.000339603 -0.000235643 -6.34919e-05 -8.45268e-05 0 0 0 0 0 0 0 0 0 0 0 0 0 0 0 0 0 0 0 0 0 0 0 0 0 0 0 0 0 0 0 0 -0.000841384 -0.000557187 -0.000688095 -0.00133568 -0.000340254 -0.000236445 -8.78935e-05 -8.45269e-05 0 0 0 0 0 0 0 0 0 0 0 0 0 0 0 0 0 0 0 0 0 0 0 0 0 0 0 0 0 0 0 0 -0.000844221 -0.000643873 -0.000688096 -0.00174502 -0.00034051 -0.000238659 -0.000108572 -8.45271e-05 0 0 0 0 0 0 0 0 0 0 0 0 0 0 0 0 0 0 0 0 0 0 0 0 0 0 0 0 0 0 0 0 -0.000851288 -0.000701072 -0.000688097 -0.00223116 -0.000340603 -0.000244341 -0.000124232 -8.45274e-05 0 0 0 0 0 0 0 0 0 0 0 0 0 0 0 0 0 0 0 0 0 0 0 0 0 0 0 0 0 0 0 0 -0.00086767 -0.000736026 -0.000688101 -0.00256335 -0.000340636 -0.000257807 -0.000134858 -8.45284e-05 0 0 0 0 0 0 0 0 0 0 0 0 0 0 0 0 0 0 0 0 0 0 0 0 0 0 0 0 0 0 0 0 -0.000903029 -0.000755843 -0.000688113 -0.00181735 -0.000340646 -0.000287125 -0.000141354 -8.45319e-05 0 0 0 0 0 0 0 0 0 0 0 0 0 0 0 0 0 0 0 0 0 0 0 0 0 0 0 0 0 0 0 0 -0.000974256 -0.000766275 -0.000688155 -6.56949e-05 -0.000340649 -0.000345312 -0.000144954 -8.45438e-05 0 0 0 0 0 0 0 0 0 0 0 0 0 0 0 0 0 0 0 0 0 0 0 0 0 0 0 0 0 0 0 0 -0.00110907 -0.000771379 -0.000688287 -0.00019271 -0.00034065 -0.000449545 -0.000146772 -8.45844e-05 0 0 0 0 0 0 0 0 0 0 0 0 0 0 0 0 0 0 0 0 0 0 0 0 0 0 0 0 0 0 0 0 -0.00135202 -0.000773701 -0.000688688 -0.000306223 -0.000340651 -0.000615822 -0.000147614 -8.47165e-05 0 0 0 0 0 0 0 0 0 0 0 0 0 0 0 0 0 0 0 0 0 0 0 0 0 0 0 0 0 0 0 0 -0.00177775 -0.000774684 -0.00068983 -0.000399105 -0.000340651 -0.00084749 -0.000147973 -8.51228e-05 0 0 0 0 0 0 0 0 0 0 0 0 0 0 0 0 0 0 0 0 0 0 0 0 0 0 0 0 0 0 0 0 -0.00252294 -0.000775072 -0.000692866 -0.000468548 -0.000340651 -0.00111801 -0.000148114 -8.62958e-05 0 0 0 0 0 0 0 0 0 0 0 0 0 0 0 0 0 0 0 0 0 0 0 0 0 0 0 0 0 0 0 0 -0.00385121 -0.000775215 -0.000700363 -0.000516063 -0.000340652 -0.00134391 -0.000148166 -8.94604e-05 0 0 0 0 0 0 0 0 0 0 0 0 0 0 0 0 0 0 0 0 0 0 0 0 0 0 0 0 0 0 0 0 -0.0061846 -0.000775264 -0.000717502 -0.0005459 -0.000340655 -0.00132828 -0.000148184 -9.74023e-05 0 0 0 0 0 0 0 0 0 0 0 0 0 0 0 0 0 0 0 0 0 0 0 0 0 0 0 0 0 0 0 0 -0.00889858 -0.00077528 -0.000753693 -0.000563142 -0.000340664 -0.000697432 -0.000148189 -0.000115837 0 0 0 0 0 0 0 0 0 0 0 0 0 0 0 0 0 0 0 0 0 0 0 0 0 0 0 0 0 0 0 0 -0.000108106 -0.000775285 -0.000824208 -0.000572333 -0.000340694 -2.11361e-05 -0.000148191 -0.000155076 0 0 0 0 0 0 0 0 0 0 0 0 0 0 0 0 0 0 0 0 0 0 0 0 0 0 0 0 0 0 0 0 -0.000310744 -0.000775287 -0.00095118 -0.000576861 -0.000340796 -6.40998e-05 -0.000148192 -0.000230628 0 0 0 0 0 0 0 0 0 0 0 0 0 0 0 0 0 0 0 0 0 0 0 0 0 0 0 0 0 0 0 0 -0.000480914 -0.000775287 -0.00116369 -0.000578927 -0.000341114 -0.000106513 -0.000148192 -0.000359465 0 0 0 0 0 0 0 0 0 0 0 0 0 0 0 0 0 0 0 0 0 0 0 0 0 0 0 0 0 0 0 0 -0.000611026 -0.000775288 -0.00149755 -0.000579802 -0.000342044 -0.000145114 -0.000148192 -0.000547751 0 0 0 0 0 0 0 0 0 0 0 0 0 0 0 0 0 0 0 0 0 0 0 0 0 0 0 0 0 0 0 0 -0.00070252 -0.000775288 -0.00199286 -0.000580147 -0.000344585 -0.000176847 -0.000148192 -0.000769372 0 0 0 0 0 0 0 0 0 0 0 0 0 0 0 0 0 0 0 0 0 0 0 0 0 0 0 0 0 0 0 0 -0.000762049 -0.000775289 -0.00266685 -0.000580273 -0.000351024 -0.000200311 -0.000148193 -0.000941173 0 0 0 0 0 0 0 0 0 0 0 0 0 0 0 0 0 0 0 0 0 0 0 0 0 0 0 0 0 0 0 0 -0.000798002 -0.000775293 -0.003341 -0.000580317 -0.000366079 -0.000215954 -0.000148194 -0.000901966 0 0 0 0 0 0 0 0 0 0 0 0 0 0 0 0 0 0 0 0 0 0 0 0 0 0 0 0 0 0 0 0 -0.00081819 -0.000775306 -0.00282964 -0.000580331 -0.000398396 -0.000225402 -0.0001482 -0.000434457 0 0 0 0 0 0 0 0 0 0 0 0 0 0 0 0 0 0 0 0 0 0 0 0 0 0 0 0 0 0 0 0 -0.000828738 -0.000775347 -8.22572e-05 -0.000580335 -0.000461657 -0.000230597 -0.000148218 -6.40723e-06 0 0 0 0 0 0 0 0 0 0 0 0 0 0 0 0 0 0 0 0 0 0 0 0 0 0 0 0 0 0 0 0 -0.000833866 -0.000775477 -0.000239193 -0.000580337 -0.00057372 -0.000233212 -0.000148281 -1.98809e-05 0 0 0 0 0 0 0 0 0 0 0 0 0 0 0 0 0 0 0 0 0 0 0 0 0 0 0 0 0 0 0 0 -0.000837744 -0.000804276 -0.000650378 -0.000580343 -0.00162482 -0.000235239 -0.000166147 -7.5592e-05 0 0 0 0 0 0 0 0 0 0 0 0 0 0 0 0 0 0 0 0 0 0 0 0 0 0 0 0 0 0 0 0 -0.000837759 -0.000840299 -0.000669311 -0.000580354 -0.000917023 -0.000235247 -0.000190478 -7.95183e-05 0 0 0 0 0 0 0 0 0 0 0 0 0 0 0 0 0 0 0 0 0 0 0 0 0 0 0 0 0 0 0 0 -0.000837764 -0.000911489 -0.000679355 -0.000580393 -3.33734e-05 -0.000235249 -0.0002402 -8.16996e-05 0 0 0 0 0 0 0 0 0 0 0 0 0 0 0 0 0 0 0 0 0 0 0 0 0 0 0 0 0 0 0 0 -0.000837766 -0.00104269 -0.000684295 -0.000580517 -0.000100037 -0.00023525 -0.000331899 -8.28007e-05 0 0 0 0 0 0 0 0 0 0 0 0 0 0 0 0 0 0 0 0 0 0 0 0 0 0 0 0 0 0 0 0 -0.000837766 -0.00127039 -0.00068655 -0.000580899 -0.00016361 -0.000235251 -0.000481871 -8.33089e-05 0 0 0 0 0 0 0 0 0 0 0 0 0 0 0 0 0 0 0 0 0 0 0 0 0 0 0 0 0 0 0 0 -0.000837767 -0.00164823 -0.000687507 -0.000581995 -0.000219385 -0.000235251 -0.000693662 -8.35245e-05 0 0 0 0 0 0 0 0 0 0 0 0 0 0 0 0 0 0 0 0 0 0 0 0 0 0 0 0 0 0 0 0 -0.000837767 -0.00225726 -0.000687885 -0.000584933 -0.00026377 -0.000235251 -0.000938663 -8.36091e-05 0 0 0 0 0 0 0 0 0 0 0 0 0 0 0 0 0 0 0 0 0 0 0 0 0 0 0 0 0 0 0 0 -0.000837768 -0.00320636 -0.000688024 -0.000592237 -0.000295733 -0.000235252 -0.0011314 -8.36399e-05 0 0 0 0 0 0 0 0 0 0 0 0 0 0 0 0 0 0 0 0 0 0 0 0 0 0 0 0 0 0 0 0 -0.000837772 -0.00449179 -0.000688072 -0.000609019 -0.000316616 -0.000235254 -0.00109409 -8.36505e-05 0 0 0 0 0 0 0 0 0 0 0 0 0 0 0 0 0 0 0 0 0 0 0 0 0 0 0 0 0 0 0 0 -0.000837783 -0.00483266 -0.000688088 -0.000644511 -0.000329043 -0.000235261 -0.000545599 -8.36539e-05 0 0 0 0 0 0 0 0 0 0 0 0 0 0 0 0 0 0 0 0 0 0 0 0 0 0 0 0 0 0 0 0 -0.000837823 -9.69291e-05 -0.000688093 -0.000713381 -0.000335808 -0.000235287 -1.2256e-05 -8.3655e-05 0 0 0 0 0 0 0 0 0 0 0 0 0 0 0 0 0 0 0 0 0 0 0 0 0 0 0 0 0 0 0 0 -0.000837948 -0.000279911 -0.000688095 -0.00083577 -0.000339189 -0.000235373 -3.76052e-05 -8.36554e-05 0 0 0 0 0 0 0 0 0 0 0 0 0 0 0 0 0 0 0 0 0 0 0 0 0 0 0 0 0 0 0 0 -0.000838327 -0.000435886 -0.000688095 -0.00103514 -0.000340746 -0.000235644 -6.34919e-05 -8.36556e-05 0 0 0 0 0 0 0 0 0 0 0 0 0 0 0 0 0 0 0 0 0 0 0 0 0 0 0 0 0 0 0 0 -0.00083941 -0.000557187 -0.000688095 -0.0013338 -0.000341408 -0.000236445 -8.78935e-05 -8.36557e-05 0 0 0 0 0 0 0 0 0 0 0 0 0 0 0 0 0 0 0 0 0 0 0 0 0 0 0 0 0 0 0 0 -0.000842293 -0.000643872 -0.000688096 -0.00174354 -0.000341669 -0.00023866 -0.000108572 -8.36558e-05 0 0 0 0 0 0 0 0 0 0 0 0 0 0 0 0 0 0 0 0 0 0 0 0 0 0 0 0 0 0 0 0 -0.000849456 -0.000701071 -0.000688097 -0.00223026 -0.000341765 -0.000244341 -0.000124232 -8.36561e-05 0 0 0 0 0 0 0 0 0 0 0 0 0 0 0 0 0 0 0 0 0 0 0 0 0 0 0 0 0 0 0 0 -0.000866017 -0.000736026 -0.000688101 -0.00256294 -0.000341798 -0.000257808 -0.000134858 -8.36571e-05 0 0 0 0 0 0 0 0 0 0 0 0 0 0 0 0 0 0 0 0 0 0 0 0 0 0 0 0 0 0 0 0 -0.000901664 -0.000755843 -0.000688113 -0.00181725 -0.000341809 -0.000287126 -0.000141354 -8.36604e-05 0 0 0 0 0 0 0 0 0 0 0 0 0 0 0 0 0 0 0 0 0 0 0 0 0 0 0 0 0 0 0 0 -0.000973292 -0.000766275 -0.000688155 -6.5904e-05 -0.000341812 -0.000345314 -0.000144954 -8.3672e-05 0 0 0 0 0 0 0 0 0 0 0 0 0 0 0 0 0 0 0 0 0 0 0 0 0 0 0 0 0 0 0 0 -0.00110857 -0.000771379 -0.000688287 -0.000193316 -0.000341813 -0.000449546 -0.000146772 -8.37113e-05 0 0 0 0 0 0 0 0 0 0 0 0 0 0 0 0 0 0 0 0 0 0 0 0 0 0 0 0 0 0 0 0 -0.00135194 -0.000773701 -0.000688688 -0.000307114 -0.000341814 -0.000615825 -0.000147614 -8.38392e-05 0 0 0 0 0 0 0 0 0 0 0 0 0 0 0 0 0 0 0 0 0 0 0 0 0 0 0 0 0 0 0 0 -0.00177794 -0.000774684 -0.00068983 -0.000400096 -0.000341814 -0.000847493 -0.000147973 -8.42335e-05 0 0 0 0 0 0 0 0 0 0 0 0 0 0 0 0 0 0 0 0 0 0 0 0 0 0 0 0 0 0 0 0 -0.00252319 -0.000775072 -0.000692866 -0.000469454 -0.000341814 -0.00111802 -0.000148114 -8.53741e-05 0 0 0 0 0 0 0 0 0 0 0 0 0 0 0 0 0 0 0 0 0 0 0 0 0 0 0 0 0 0 0 0 -0.0038514 -0.000775215 -0.000700363 -0.000516766 -0.000341815 -0.00134392 -0.000148166 -8.84585e-05 0 0 0 0 0 0 0 0 0 0 0 0 0 0 0 0 0 0 0 0 0 0 0 0 0 0 0 0 0 0 0 0 -0.00618468 -0.000775264 -0.000717502 -0.000546365 -0.000341818 -0.00132828 -0.000148183 -9.62194e-05 0 0 0 0 0 0 0 0 0 0 0 0 0 0 0 0 0 0 0 0 0 0 0 0 0 0 0 0 0 0 0 0 -0.0088986 -0.00077528 -0.000753693 -0.000563397 -0.000341827 -0.000697432 -0.000148189 -0.000114288 0 0 0 0 0 0 0 0 0 0 0 0 0 0 0 0 0 0 0 0 0 0 0 0 0 0 0 0 0 0 0 0 -0.000107876 -0.000775285 -0.000824207 -0.000572434 -0.000341859 -2.11361e-05 -0.000148191 -0.00015288 0 0 0 0 0 0 0 0 0 0 0 0 0 0 0 0 0 0 0 0 0 0 0 0 0 0 0 0 0 0 0 0 -0.00031011 -0.000775287 -0.000951179 -0.000576865 -0.000341963 -6.40998e-05 -0.000148191 -0.000227471 0 0 0 0 0 0 0 0 0 0 0 0 0 0 0 0 0 0 0 0 0 0 0 0 0 0 0 0 0 0 0 0 -0.00048 -0.000775287 -0.00116369 -0.000578876 -0.000342289 -0.000106513 -0.000148192 -0.000355213 0 0 0 0 0 0 0 0 0 0 0 0 0 0 0 0 0 0 0 0 0 0 0 0 0 0 0 0 0 0 0 0 -0.000609971 -0.000775288 -0.00149754 -0.000579724 -0.000343241 -0.000145114 -0.000148192 -0.000542737 0 0 0 0 0 0 0 0 0 0 0 0 0 0 0 0 0 0 0 0 0 0 0 0 0 0 0 0 0 0 0 0 -0.000701434 -0.000775288 -0.00199286 -0.000580056 -0.000345834 -0.000176847 -0.000148192 -0.000764474 0 0 0 0 0 0 0 0 0 0 0 0 0 0 0 0 0 0 0 0 0 0 0 0 0 0 0 0 0 0 0 0 -0.000760994 -0.000775289 -0.00266684 -0.000580177 -0.000352388 -0.000200311 -0.000148192 -0.000937391 0 0 0 0 0 0 0 0 0 0 0 0 0 0 0 0 0 0 0 0 0 0 0 0 0 0 0 0 0 0 0 0 -0.000797002 -0.000775293 -0.003341 -0.000580219 -0.000367671 -0.000215954 -0.000148194 -0.000899809 0 0 0 0 0 0 0 0 0 0 0 0 0 0 0 0 0 0 0 0 0 0 0 0 0 0 0 0 0 0 0 0 -0.000817244 -0.000775306 -0.00282964 -0.000580232 -0.000400375 -0.000225402 -0.000148199 -0.000433812 0 0 0 0 0 0 0 0 0 0 0 0 0 0 0 0 0 0 0 0 0 0 0 0 0 0 0 0 0 0 0 0 -0.000827831 -0.000775347 -8.22577e-05 -0.000580236 -0.00046419 -0.000230597 -0.000148218 -6.28582e-06 0 0 0 0 0 0 0 0 0 0 0 0 0 0 0 0 0 0 0 0 0 0 0 0 0 0 0 0 0 0 0 0 -0.000832985 -0.000775477 -0.000239195 -0.000580237 -0.000576874 -0.000233212 -0.000148281 -1.95101e-05 0 0 0 0 0 0 0 0 0 0 0 0 0 0 0 0 0 0 0 0 0 0 0 0 0 0 0 0 0 0 0 0 -0.000835321 -0.000775872 -0.00037584 -0.000580238 -0.000755343 -0.00023442 -0.000148482 -3.34547e-05 0 0 0 0 0 0 0 0 0 0 0 0 0 0 0 0 0 0 0 0 0 0 0 0 0 0 0 0 0 0 0 0 -0.000836307 -0.000776996 -0.000484612 -0.000580238 -0.00100589 -0.000234935 -0.000149088 -4.70116e-05 0 0 0 0 0 0 0 0 0 0 0 0 0 0 0 0 0 0 0 0 0 0 0 0 0 0 0 0 0 0 0 0 -0.000836696 -0.000779979 -0.00056401 -0.000580239 -0.00130894 -0.000235139 -0.000150795 -5.87801e-05 0 0 0 0 0 0 0 0 0 0 0 0 0 0 0 0 0 0 0 0 0 0 0 0 0 0 0 0 0 0 0 0 -0.000836839 -0.000787353 -0.000617336 -0.00058024 -0.00158797 -0.000235213 -0.000155271 -6.78382e-05 0 0 0 0 0 0 0 0 0 0 0 0 0 0 0 0 0 0 0 0 0 0 0 0 0 0 0 0 0 0 0 0 -0.000836911 -0.00127039 -0.00068655 -0.000580774 -0.00016371 -0.000235251 -0.000481869 -8.14864e-05 0 0 0 0 0 0 0 0 0 0 0 0 0 0 0 0 0 0 0 0 0 0 0 0 0 0 0 0 0 0 0 0 -0.000836911 -0.00164823 -0.000687507 -0.000581827 -0.000219542 -0.000235251 -0.000693659 -8.16914e-05 0 0 0 0 0 0 0 0 0 0 0 0 0 0 0 0 0 0 0 0 0 0 0 0 0 0 0 0 0 0 0 0 -0.000836912 -0.00225726 -0.000687885 -0.000584665 -0.000263997 -0.000235251 -0.00093866 -8.17714e-05 0 0 0 0 0 0 0 0 0 0 0 0 0 0 0 0 0 0 0 0 0 0 0 0 0 0 0 0 0 0 0 0 -0.000836913 -0.00320636 -0.000688025 -0.000591761 -0.000296035 -0.000235252 -0.00113139 -8.18005e-05 0 0 0 0 0 0 0 0 0 0 0 0 0 0 0 0 0 0 0 0 0 0 0 0 0 0 0 0 0 0 0 0 -0.000836917 -0.00449179 -0.000688073 -0.000608158 -0.000316985 -0.000235254 -0.00109409 -8.18104e-05 0 0 0 0 0 0 0 0 0 0 0 0 0 0 0 0 0 0 0 0 0 0 0 0 0 0 0 0 0 0 0 0 -0.000836928 -0.00483266 -0.000688089 -0.000643036 -0.000329465 -0.000235262 -0.000545599 -8.18136e-05 0 0 0 0 0 0 0 0 0 0 0 0 0 0 0 0 0 0 0 0 0 0 0 0 0 0 0 0 0 0 0 0 -0.000836968 -9.69291e-05 -0.000688094 -0.000711093 -0.000336266 -0.000235287 -1.2256e-05 -8.18146e-05 0 0 0 0 0 0 0 0 0 0 0 0 0 0 0 0 0 0 0 0 0 0 0 0 0 0 0 0 0 0 0 0 -0.000837094 -0.000279911 -0.000688095 -0.00083266 -0.000339668 -0.000235373 -3.76051e-05 -8.1815e-05 0 0 0 0 0 0 0 0 0 0 0 0 0 0 0 0 0 0 0 0 0 0 0 0 0 0 0 0 0 0 0 0 -0.000837478 -0.000435886 -0.000688096 -0.00103154 -0.000341237 -0.000235644 -6.34917e-05 -8.18151e-05 0 0 0 0 0 0 0 0 0 0 0 0 0 0 0 0 0 0 0 0 0 0 0 0 0 0 0 0 0 0 0 0 -0.000838569 -0.000557187 -0.000688096 -0.00133033 -0.000341905 -0.000236445 -8.78932e-05 -8.18152e-05 0 0 0 0 0 0 0 0 0 0 0 0 0 0 0 0 0 0 0 0 0 0 0 0 0 0 0 0 0 0 0 0 -0.000841474 -0.000643872 -0.000688097 -0.00174084 -0.000342168 -0.00023866 -0.000108571 -8.18154e-05 0 0 0 0 0 0 0 0 0 0 0 0 0 0 0 0 0 0 0 0 0 0 0 0 0 0 0 0 0 0 0 0 -0.000848681 -0.000701071 -0.000688098 -0.00222862 -0.000342265 -0.000244341 -0.000124231 -8.18157e-05 0 0 0 0 0 0 0 0 0 0 0 0 0 0 0 0 0 0 0 0 0 0 0 0 0 0 0 0 0 0 0 0 -0.000865324 -0.000736026 -0.000688102 -0.00256222 -0.000342299 -0.000257808 -0.000134857 -8.18166e-05 0 0 0 0 0 0 0 0 0 0 0 0 0 0 0 0 0 0 0 0 0 0 0 0 0 0 0 0 0 0 0 0 -0.000901105 -0.000755843 -0.000688114 -0.00181707 -0.00034231 -0.000287126 -0.000141353 -8.18197e-05 0 0 0 0 0 0 0 0 0 0 0 0 0 0 0 0 0 0 0 0 0 0 0 0 0 0 0 0 0 0 0 0 -0.000972918 -0.000766275 -0.000688155 -6.62413e-05 -0.000342313 -0.000345314 -0.000144953 -8.18305e-05 0 0 0 0 0 0 0 0 0 0 0 0 0 0 0 0 0 0 0 0 0 0 0 0 0 0 0 0 0 0 0 0 -0.00110841 -0.000771379 -0.000688287 -0.000194303 -0.000342314 -0.000449547 -0.000146771 -8.18672e-05 0 0 0 0 0 0 0 0 0 0 0 0 0 0 0 0 0 0 0 0 0 0 0 0 0 0 0 0 0 0 0 0 -0.00135197 -0.000773701 -0.000688688 -0.000308582 -0.000342314 -0.000615825 -0.000147613 -8.19871e-05 0 0 0 0 0 0 0 0 0 0 0 0 0 0 0 0 0 0 0 0 0 0 0 0 0 0 0 0 0 0 0 0 -0.00177808 -0.000774684 -0.000689831 -0.000401746 -0.000342315 -0.000847493 -0.000147971 -8.2358e-05 0 0 0 0 0 0 0 0 0 0 0 0 0 0 0 0 0 0 0 0 0 0 0 0 0 0 0 0 0 0 0 0 -0.00252335 -0.000775072 -0.000692867 -0.000470981 -0.000342315 -0.00111802 -0.000148113 -8.34361e-05 0 0 0 0 0 0 0 0 0 0 0 0 0 0 0 0 0 0 0 0 0 0 0 0 0 0 0 0 0 0 0 0 -0.00385151 -0.000775215 -0.000700363 -0.000517968 -0.000342316 -0.00134392 -0.000148164 -8.63665e-05 0 0 0 0 0 0 0 0 0 0 0 0 0 0 0 0 0 0 0 0 0 0 0 0 0 0 0 0 0 0 0 0 -0.00618473 -0.000775264 -0.000717502 -0.000547179 -0.000342318 -0.00132828 -0.000148182 -9.37821e-05 0 0 0 0 0 0 0 0 0 0 0 0 0 0 0 0 0 0 0 0 0 0 0 0 0 0 0 0 0 0 0 0 -0.00889861 -0.00077528 -0.000753692 -0.000563865 -0.000342328 -0.000697432 -0.000148188 -0.000111156 0 0 0 0 0 0 0 0 0 0 0 0 0 0 0 0 0 0 0 0 0 0 0 0 0 0 0 0 0 0 0 0 -0.000107783 -0.000775285 -0.000824206 -0.000572645 -0.00034236 -2.11361e-05 -0.00014819 -0.000148523 0 0 0 0 0 0 0 0 0 0 0 0 0 0 0 0 0 0 0 0 0 0 0 0 0 0 0 0 0 0 0 0 -0.000309854 -0.000775287 -0.000951177 -0.000576912 -0.000342466 -6.40998e-05 -0.00014819 -0.000221307 0 0 0 0 0 0 0 0 0 0 0 0 0 0 0 0 0 0 0 0 0 0 0 0 0 0 0 0 0 0 0 0 -0.000479633 -0.000775287 -0.00116369 -0.000578832 -0.000342795 -0.000106513 -0.00014819 -0.000347 0 0 0 0 0 0 0 0 0 0 0 0 0 0 0 0 0 0 0 0 0 0 0 0 0 0 0 0 0 0 0 0 -0.000609552 -0.000775288 -0.00149754 -0.000579633 -0.000343757 -0.000145114 -0.000148191 -0.000533122 0 0 0 0 0 0 0 0 0 0 0 0 0 0 0 0 0 0 0 0 0 0 0 0 0 0 0 0 0 0 0 0 -0.000701006 -0.000775288 -0.00199286 -0.000579943 -0.000346375 -0.000176847 -0.000148191 -0.000755132 0 0 0 0 0 0 0 0 0 0 0 0 0 0 0 0 0 0 0 0 0 0 0 0 0 0 0 0 0 0 0 0 -0.000760583 -0.000775289 -0.00266684 -0.000580056 -0.000352982 -0.000200311 -0.000148191 -0.000930216 0 0 0 0 0 0 0 0 0 0 0 0 0 0 0 0 0 0 0 0 0 0 0 0 0 0 0 0 0 0 0 0 -0.000796616 -0.000775293 -0.003341 -0.000580094 -0.000368371 -0.000215954 -0.000148193 -0.000895739 0 0 0 0 0 0 0 0 0 0 0 0 0 0 0 0 0 0 0 0 0 0 0 0 0 0 0 0 0 0 0 0 -0.000816881 -0.000775306 -0.00282964 -0.000580106 -0.000401258 -0.000225402 -0.000148198 -0.0004326 0 0 0 0 0 0 0 0 0 0 0 0 0 0 0 0 0 0 0 0 0 0 0 0 0 0 0 0 0 0 0 0 -0.000827486 -0.000775347 -8.22596e-05 -0.00058011 -0.00046534 -0.000230598 -0.000148217 -6.05139e-06 0 0 0 0 0 0 0 0 0 0 0 0 0 0 0 0 0 0 0 0 0 0 0 0 0 0 0 0 0 0 0 0 -0.00083265 -0.000775477 -0.0002392 -0.000580111 -0.000578325 -0.000233212 -0.00014828 -1.8795e-05 0 0 0 0 0 0 0 0 0 0 0 0 0 0 0 0 0 0 0 0 0 0 0 0 0 0 0 0 0 0 0 0 -0.000834992 -0.000775872 -0.000375848 -0.000580112 -0.000757015 -0.00023442 -0.000148481 -3.22417e-05 0 0 0 0 0 0 0 0 0 0 0 0 0 0 0 0 0 0 0 0 0 0 0 0 0 0 0 0 0 0 0 0 -0.000835982 -0.000776996 -0.000484619 -0.000580112 -0.00100756 -0.000234935 -0.000149086 -4.52993e-05 0 0 0 0 0 0 0 0 0 0 0 0 0 0 0 0 0 0 0 0 0 0 0 0 0 0 0 0 0 0 0 0 -0.000836372 -0.000779979 -0.000564018 -0.000580112 -0.00131032 -0.000235139 -0.000150793 -5.65984e-05 0 0 0 0 0 0 0 0 0 0 0 0 0 0 0 0 0 0 0 0 0 0 0 0 0 0 0 0 0 0 0 0 -0.000836515 -0.000787353 -0.000617342 -0.000580113 -0.00158888 -0.000235213 -0.00015527 -6.52522e-05 0 0 0 0 0 0 0 0 0 0 0 0 0 0 0 0 0 0 0 0 0 0 0 0 0 0 0 0 0 0 0 0 -0.000836565 -0.000804276 -0.000650385 -0.000580116 -0.00162619 -0.000235239 -0.000166145 -7.11393e-05 0 0 0 0 0 0 0 0 0 0 0 0 0 0 0 0 0 0 0 0 0 0 0 0 0 0 0 0 0 0 0 0 -0.000836581 -0.000840299 -0.000669316 -0.000580126 -0.000917385 -0.000235247 -0.000190475 -7.47217e-05 0 0 0 0 0 0 0 0 0 0 0 0 0 0 0 0 0 0 0 0 0 0 0 0 0 0 0 0 0 0 0 0 -0.000836586 -0.000911489 -0.000679359 -0.000580159 -3.33984e-05 -0.00023525 -0.000240195 -7.66869e-05 0 0 0 0 0 0 0 0 0 0 0 0 0 0 0 0 0 0 0 0 0 0 0 0 0 0 0 0 0 0 0 0 -0.000836587 -0.00104269 -0.000684298 -0.000580267 -0.000100111 -0.00023525 -0.0