# vtk DataFile Version 2.0
Temperaturas
ASCII

DATASET RECTILINEAR_GRID
DIMENSIONS   156   312   1

X_COORDINATES   156   double
0.00178477   0.00538925   0.00906403   0.0128099   0.0166278   0.0205184   0.0244826   0.0285211   0.0326346   0.0368239   0.0410896   0.0454325   0.0498532   0.0543523   0.0589304   0.063588   0.0683257   0.0731439   0.0780431   0.0830237   0.0880861   0.0932306   0.0984574   0.103767   0.109159   0.114634   0.120193   0.125834   0.131558   0.137365   0.143256   0.149228   0.155283   0.161421   0.167639   0.17394   0.18032   0.186781   0.193322   0.199941   0.206639   0.213413   0.220264   0.22719   0.23419   0.241263   0.248408   0.255624   0.262909   0.270261   0.27768   0.285163   0.29271   0.300318   0.307985   0.315711   0.323491   0.331326   0.339213   0.347149   0.355133   0.363162   0.371234   0.379347   0.387498   0.395685   0.403905   0.412156   0.420436   0.428741   0.43707   0.445419   0.453786   0.462167   0.470562   0.478966   0.487377   0.495792   0.504208   0.512623   0.521034   0.529438   0.537833   0.546214   0.554581   0.56293   0.571259   0.579564   0.587844   0.596095   0.604315   0.612502   0.620653   0.628766   0.636838   0.644867   0.652851   0.660787   0.668674   0.676509   0.684289   0.692015   0.699682   0.70729   0.714837   0.72232   0.729739   0.737091   0.744376   0.751592   0.758737   0.76581   0.77281   0.779736   0.786587   0.793361   0.800059   0.806678   0.813219   0.81968   0.82606   0.832361   0.838579   0.844717   0.850772   0.856744   0.862635   0.868442   0.874166   0.879807   0.885366   0.890841   0.896233   0.901543   0.906769   0.911914   0.916976   0.921957   0.926856   0.931674   0.936412   0.94107   0.945648   0.950147   0.954567   0.95891   0.963176   0.967365   0.971479   0.975517   0.979482   0.983372   0.98719   0.990936   0.994611   0.998215   
Y_COORDINATES   312   double
0.00355217   0.0106912   0.0179   0.0251788   0.0325282   0.0399485   0.0474401   0.0550035   0.062639   0.0703471   0.0781282   0.0859826   0.0939107   0.101913   0.10999   0.118141   0.126368   0.134671   0.143049   0.151504   0.160035   0.168643   0.177329   0.186092   0.194934   0.203853   0.212851   0.221928   0.231084   0.240319   0.249634   0.25903   0.268505   0.27806   0.287697   0.297414   0.307212   0.317092   0.327053   0.337096   0.347221   0.357427   0.367716   0.378087   0.388541   0.399077   0.409696   0.420398   0.431182   0.44205   0.453   0.464033   0.47515   0.486349   0.497632   0.508997   0.520446   0.531978   0.543592   0.55529   0.56707   0.578933   0.590879   0.602906   0.615017   0.627209   0.639484   0.65184   0.664278   0.676797   0.689397   0.702079   0.71484   0.727683   0.740605   0.753607   0.766688   0.779848   0.793087   0.806404   0.819799   0.833271   0.84682   0.860446   0.874148   0.887925   0.901777   0.915704   0.929705   0.943779   0.957925   0.972144   0.986435   1.0008   1.01523   1.02973   1.0443   1.05894   1.07364   1.08841   1.10325   1.11816   1.13312   1.14815   1.16325   1.1784   1.19362   1.20889   1.22423   1.23962   1.25507   1.27058   1.28614   1.30176   1.31743   1.33315   1.34893   1.36475   1.38062   1.39654   1.41251   1.42853   1.44459   1.46069   1.47683   1.49302   1.50924   1.52551   1.54181   1.55815   1.57453   1.59093   1.60738   1.62385   1.64035   1.65688   1.67344   1.69003   1.70664   1.72328   1.73993   1.75661   1.77331   1.79003   1.80676   1.82351   1.84028   1.85706   1.87385   1.89064   1.90745   1.92427   1.94109   1.95792   1.97475   1.99158   2.00842   2.02525   2.04208   2.05891   2.07573   2.09255   2.10936   2.12615   2.14294   2.15972   2.17649   2.19324   2.20997   2.22669   2.24339   2.26007   2.27672   2.29336   2.30997   2.32656   2.34312   2.35965   2.37615   2.39262   2.40907   2.42547   2.44185   2.45819   2.47449   2.49076   2.50698   2.52317   2.53931   2.55541   2.57147   2.58749   2.60346   2.61938   2.63525   2.65107   2.66685   2.68257   2.69824   2.71386   2.72942   2.74493   2.76038   2.77577   2.79111   2.80638   2.8216   2.83675   2.85185   2.86688   2.88184   2.89675   2.91159   2.92636   2.94106   2.9557   2.97027   2.98477   2.9992   3.01357   3.02786   3.04207   3.05622   3.0703   3.0843   3.09822   3.11208   3.12585   3.13955   3.15318   3.16673   3.1802   3.1936   3.20691   3.22015   3.23331   3.24639   3.2594   3.27232   3.28516   3.29792   3.3106   3.3232   3.33572   3.34816   3.36052   3.37279   3.38498   3.39709   3.40912   3.42107   3.43293   3.44471   3.45641   3.46802   3.47955   3.491   3.50237   3.51365   3.52485   3.53597   3.547   3.55795   3.56882   3.5796   3.5903   3.60092   3.61146   3.62191   3.63228   3.64257   3.65278   3.6629   3.67295   3.68291   3.69279   3.70259   3.7123   3.72194   3.7315   3.74097   3.75037   3.75968   3.76892   3.77807   3.78715   3.79615   3.80507   3.81391   3.82267   3.83136   3.83996   3.8485   3.85695   3.86533   3.87363   3.88186   3.89001   3.89809   3.90609   3.91402   3.92187   3.92965   3.93736   3.945   3.95256   3.96005   3.96747   3.97482   3.9821   3.98931   3.99645   
Z_COORDINATES   1   double
0

POINT_DATA   48672
SCALARS Temperaturas double
LOOKUP_TABLE   Temperaturas

0.931098
0.794859
0.666204
0.553002
0.45993
0.387648
0.33393
0.295268
0.268056
0.249179
0.236193
0.227283
0.221151
0.216891
0.213881
0.211702
0.210073
0.20881
0.207789
0.206933
0.20619
0.205527
0.204923
0.204364
0.203842
0.203352
0.202889
0.202453
0.202042
0.201655
0.201293
0.200954
0.20064
0.200351
0.200089
0.199854
0.199647
0.199471
0.199325
0.199205
0.199106
0.199014
0.198911
0.198769
0.198554
0.198229
0.197756
0.1971
0.196236
0.195153
0.193853
0.192353
0.190681
0.188869
0.186949
0.184953
0.182904
0.180819
0.178708
0.176575
0.174421
0.172245
0.170047
0.167833
0.165609
0.16339
0.161195
0.159047
0.15697
0.154987
0.15312
0.151385
0.149791
0.148335
0.147007
0.14578
0.144618
0.143474
0.142298
0.141042
0.139676
0.138191
0.136611
0.134992
0.133416
0.13198
0.130782
0.129901
0.12938
0.129221
0.129376
0.129763
0.130273
0.130793
0.131221
0.131477
0.131508
0.131288
0.130811
0.130088
0.129139
0.127986
0.126657
0.125176
0.123568
0.121855
0.120058
0.118195
0.116281
0.114332
0.112359
0.110374
0.108384
0.106397
0.104418
0.102451
0.100498
0.0985594
0.0966352
0.0947241
0.0928237
0.0909311
0.0890429
0.0871551
0.0852636
0.0833638
0.081451
0.0795199
0.0775647
0.0755792
0.0735561
0.0714876
0.0693651
0.0671795
0.0649212
0.0625811
0.0601508
0.0576235
0.0549944
0.0522619
0.0494275
0.0464962
0.0434765
0.0403794
0.0372181
0.0340067
0.0307595
0.0274895
0.0242082
0.0209252
0.0176481
0.014383
0.0111353
0.00791105
0.00471757
0.00156477
0.929225
0.788808
0.655506
0.538341
0.443146
0.370905
0.318911
0.282857
0.258429
0.242069
0.231138
0.223794
0.218795
0.215325
0.212847
0.211018
0.209612
0.208485
0.207546
0.206733
0.206011
0.205354
0.204747
0.204183
0.203654
0.203158
0.202692
0.202255
0.201846
0.201465
0.201111
0.200782
0.20048
0.200203
0.199952
0.199729
0.199533
0.199366
0.199228
0.199117
0.199027
0.198946
0.198856
0.198729
0.198529
0.198217
0.197752
0.197097
0.196226
0.195126
0.193803
0.192274
0.19057
0.188726
0.186776
0.184753
0.182681
0.180576
0.178449
0.176305
0.174144
0.171965
0.169769
0.16756
0.165347
0.163142
0.160965
0.158836
0.156776
0.154807
0.152945
0.151203
0.149588
0.148096
0.146717
0.145426
0.144189
0.142963
0.141702
0.140368
0.138942
0.137434
0.135889
0.134384
0.133019
0.131901
0.131119
0.130726
0.130725
0.131064
0.131646
0.132347
0.133039
0.133608
0.133972
0.134079
0.133906
0.133454
0.132738
0.131782
0.130611
0.129255
0.127742
0.126097
0.124346
0.122511
0.120612
0.118669
0.116696
0.114708
0.112715
0.110727
0.10875
0.106788
0.104842
0.102914
0.101001
0.0991
0.0972069
0.0953166
0.0934236
0.0915222
0.0896072
0.0876739
0.0857184
0.0837373
0.0817285
0.0796899
0.0776203
0.075518
0.0733812
0.0712072
0.0689922
0.0667311
0.0644176
0.0620442
0.0596029
0.0570861
0.0544869
0.0518003
0.0490243
0.0461596
0.0432104
0.0401841
0.0370903
0.0339406
0.0307468
0.0275208
0.0242729
0.0210123
0.0177466
0.0144822
0.0112253
0.00798294
0.00476408
0.00158087
0.928739
0.786993
0.651624
0.531926
0.434548
0.361189
0.309326
0.274358
0.2515
0.236784
0.227318
0.221154
0.217039
0.214194
0.212138
0.210575
0.209325
0.208276
0.207361
0.206539
0.205784
0.205084
0.20443
0.203819
0.203248
0.202717
0.202225
0.201773
0.201359
0.200983
0.200642
0.200336
0.200061
0.199816
0.199599
0.199409
0.199246
0.19911
0.199
0.198914
0.19885
0.198795
0.198733
0.198637
0.198469
0.198188
0.197747
0.197106
0.196235
0.195122
0.193769
0.192199
0.190444
0.188541
0.186528
0.184439
0.182301
0.180132
0.177946
0.175748
0.17354
0.171324
0.1691
0.166874
0.164654
0.162456
0.160295
0.158192
0.156161
0.154217
0.152369
0.150625
0.148985
0.147446
0.145996
0.144617
0.14328
0.141953
0.140604
0.139219
0.137809
0.136417
0.135125
0.134036
0.133261
0.132888
0.132963
0.133468
0.134325
0.135408
0.136572
0.137681
0.138622
0.13932
0.139732
0.139842
0.139651
0.139172
0.138425
0.137435
0.136227
0.13483
0.133273
0.131583
0.129788
0.127915
0.125988
0.124028
0.122054
0.120081
0.118119
0.116177
0.114257
0.112362
0.110486
0.108625
0.106769
0.104909
0.103032
0.101126
0.0991799
0.097182
0.0951233
0.092997
0.090799
0.0885282
0.0861865
0.0837788
0.0813121
0.0787953
0.076238
0.0736496
0.0710382
0.0684097
0.0657672
0.0631104
0.0604355
0.0577363
0.0550044
0.0522305
0.0494062
0.0465245
0.0435811
0.0405748
0.0375074
0.0343832
0.0312085
0.0279904
0.0247366
0.0214544
0.0181512
0.0148343
0.011512
0.00819407
0.00489281
0.00162399
0.929478
0.788915
0.653957
0.533622
0.434892
0.360124
0.307313
0.272019
0.249336
0.23507
0.226133
0.220451
0.216715
0.214133
0.212234
0.210741
0.209494
0.208399
0.207403
0.206478
0.20561
0.204792
0.204023
0.203305
0.20264
0.202032
0.201481
0.200988
0.200552
0.200173
0.199846
0.199568
0.199334
0.199139
0.198979
0.198849
0.198746
0.198667
0.198611
0.198575
0.198557
0.198547
0.19853
0.198481
0.198362
0.198128
0.197729
0.197119
0.196265
0.195148
0.193771
0.192156
0.190336
0.188352
0.186242
0.184045
0.181792
0.179508
0.177209
0.174908
0.172611
0.170319
0.168038
0.165773
0.163535
0.161337
0.159194
0.157118
0.155119
0.1532
0.151364
0.149611
0.14794
0.146351
0.144837
0.143391
0.141998
0.140645
0.139333
0.13808
0.13694
0.135998
0.13536
0.135135
0.135402
0.136189
0.137453
0.139091
0.140957
0.1429
0.144781
0.146496
0.147968
0.149151
0.150016
0.150549
0.150749
0.15062
0.150177
0.14944
0.148434
0.147191
0.145744
0.14413
0.142385
0.140545
0.138643
0.136709
0.134768
0.132839
0.130935
0.129065
0.12723
0.125425
0.12364
0.121862
0.120071
0.118248
0.116369
0.114412
0.112355
0.110179
0.107867
0.105408
0.102796
0.100029
0.0971129
0.094059
0.090884
0.0876089
0.0842585
0.0808595
0.0774389
0.0740217
0.0706296
0.0672789
0.0639796
0.0607346
0.0575404
0.0543875
0.0512625
0.0481499
0.0450338
0.0418998
0.0387365
0.0355354
0.0322916
0.0290031
0.0256708
0.0222978
0.0188896
0.0154542
0.012002
0.00854646
0.00510398
0.00169406
0.930933
0.793041
0.660017
0.54038
0.441123
0.365093
0.310888
0.27447
0.251057
0.236403
0.227296
0.221551
0.217782
0.215155
0.213179
0.211574
0.210183
0.208919
0.207736
0.206614
0.205547
0.204535
0.203584
0.2027
0.20189
0.201159
0.200512
0.199949
0.19947
0.199072
0.198751
0.1985
0.198312
0.198179
0.198091
0.198041
0.198021
0.198025
0.198048
0.198088
0.198139
0.198194
0.19824
0.198253
0.198197
0.198024
0.197683
0.197121
0.196297
0.195188
0.193794
0.192132
0.190235
0.188144
0.185903
0.183553
0.181136
0.178685
0.176228
0.173784
0.171365
0.168977
0.166628
0.164323
0.162071
0.159883
0.157765
0.155718
0.153743
0.151834
0.149993
0.14822
0.146523
0.144913
0.143398
0.141988
0.140691
0.139525
0.138525
0.137752
0.137295
0.137259
0.137745
0.13882
0.140496
0.142716
0.145367
0.1483
0.151364
0.154419
0.157351
0.160068
0.162501
0.164592
0.166302
0.167604
0.168484
0.168942
0.168987
0.168642
0.167938
0.166916
0.16562
0.164099
0.162405
0.160586
0.158689
0.156755
0.154819
0.152907
0.151036
0.149214
0.147441
0.145706
0.143994
0.142279
0.140532
0.138722
0.136814
0.134773
0.132567
0.130167
0.127548
0.124693
0.121591
0.118237
0.114637
0.110803
0.106756
0.102525
0.0981448
0.093657
0.0891064
0.0845394
0.0800015
0.0755339
0.0711712
0.0669388
0.062851
0.0589105
0.0551094
0.0514306
0.0478505
0.044342
0.0408775
0.0374313
0.0339814
0.0305107
0.0270077
0.0234664
0.0198867
0.0162743
0.0126402
0.00900006
0.0053737
0.00178323
0.932737
0.798262
0.667987
0.549853
0.450687
0.373675
0.317991
0.28009
0.255463
0.239925
0.23021
0.224044
0.219961
0.21707
0.214845
0.212988
0.211336
0.209802
0.208345
0.206949
0.205614
0.204348
0.203161
0.202065
0.201069
0.200183
0.19941
0.198752
0.198209
0.197777
0.197449
0.197217
0.197071
0.196998
0.196987
0.197025
0.197101
0.197204
0.197326
0.197461
0.197601
0.197739
0.197864
0.197952
0.19797
0.19787
0.197597
0.197092
0.196309
0.195216
0.193805
0.192089
0.190098
0.187872
0.185459
0.182913
0.180286
0.177627
0.17498
0.172373
0.169826
0.16735
0.16495
0.162629
0.160389
0.158228
0.156138
0.154111
0.152139
0.150221
0.148367
0.146597
0.144938
0.143418
0.142067
0.140915
0.139995
0.139356
0.139063
0.139204
0.13988
0.141182
0.143173
0.14586
0.149187
0.153043
0.157282
0.161748
0.166287
0.170759
0.175042
0.179029
0.182632
0.185783
0.188433
0.190549
0.19212
0.193149
0.193652
0.193659
0.193212
0.19236
0.191159
0.189672
0.187961
0.18609
0.184118
0.182099
0.180077
0.178086
0.17615
0.174276
0.172464
0.170699
0.168957
0.167206
0.165407
0.16352
0.1615
0.159305
0.156896
0.154237
0.151299
0.148059
0.144501
0.140617
0.136407
0.131879
0.12705
0.121946
0.116601
0.111057
0.105364
0.0995801
0.093766
0.0879848
0.0822976
0.0767595
0.0714156
0.0662974
0.0614205
0.0567844
0.0523732
0.0481586
0.0441041
0.0401694
0.0363141
0.0325022
0.0287041
0.0248989
0.0210749
0.0172303
0.0133719
0.00951439
0.00567747
0.00188337
0.93467
0.803912
0.676761
0.560578
0.461935
0.384234
0.327157
0.287675
0.261615
0.244928
0.234349
0.227539
0.222957
0.21965
0.217052
0.21484
0.212839
0.210959
0.209161
0.207435
0.205786
0.204226
0.202772
0.201439
0.200238
0.199179
0.198267
0.197503
0.196885
0.196408
0.196062
0.195838
0.195722
0.195701
0.195759
0.195882
0.196053
0.196258
0.196486
0.196725
0.196965
0.197199
0.197413
0.197586
0.197686
0.197664
0.197463
0.19702
0.196279
0.1952
0.193765
0.191979
0.189867
0.187471
0.184846
0.182062
0.17919
0.176302
0.173457
0.170699
0.168052
0.165525
0.163119
0.160824
0.158624
0.156499
0.154428
0.152399
0.150416
0.148501
0.146693
0.145039
0.143589
0.142388
0.141479
0.140907
0.140725
0.140998
0.141811
0.143257
0.145427
0.148383
0.15214
0.156653
0.161816
0.167481
0.173474
0.179611
0.185715
0.191623
0.197193
0.202308
0.206882
0.210852
0.214185
0.216866
0.218899
0.2203
0.221097
0.221329
0.221041
0.220286
0.219124
0.217619
0.21584
0.213856
0.211734
0.209538
0.20732
0.205123
0.202975
0.200891
0.19887
0.196895
0.194941
0.192972
0.190946
0.188815
0.186535
0.184061
0.181352
0.178373
0.175094
0.171492
0.16755
0.163257
0.158608
0.153605
0.148255
0.142574
0.136583
0.130313
0.123804
0.117102
0.110267
0.103363
0.0964634
0.0896418
0.0829715
0.0765181
0.0703341
0.0644546
0.058894
0.053646
0.0486853
0.0439724
0.0394591
0.0350948
0.0308324
0.0266325
0.0224669
0.01832
0.0141886
0.0100798
0.00600843
0.00199204
0.93661
0.809616
0.685712
0.571706
0.473875
0.395752
0.337448
0.296422
0.268865
0.250908
0.239322
0.231728
0.226522
0.222691
0.219626
0.21698
0.214562
0.21228
0.210096
0.208003
0.206012
0.204141
0.202409
0.200833
0.199427
0.1982
0.197154
0.196288
0.195598
0.195074
0.194706
0.194482
0.194386
0.194403
0.194516
0.194709
0.194963
0.195262
0.195589
0.19593
0.196272
0.196604
0.196912
0.197173
0.197356
0.197412
0.197281
0.196895
0.196188
0.195111
0.193634
0.19175
0.189482
0.186875
0.183999
0.180944
0.177812
0.174699
0.171685
0.168823
0.166138
0.163628
0.161275
0.159044
0.156896
0.154795
0.152723
0.150692
0.148742
0.146939
0.145353
0.144052
0.143092
0.142519
0.142379
0.142721
0.143608
0.145117
0.147341
0.150371
0.154278
0.159089
0.164768
0.171211
0.178257
0.185703
0.193325
0.2009
0.208224
0.215124
0.221467
0.227161
0.232151
0.236417
0.239959
0.242797
0.244959
0.246479
0.247395
0.247744
0.24757
0.246916
0.245829
0.244364
0.242578
0.240534
0.238296
0.235926
0.233482
0.231014
0.228558
0.226136
0.223753
0.2214
0.219054
0.216683
0.214248
0.211704
0.209009
0.206123
0.20301
0.199637
0.19598
0.192016
0.187731
0.183113
0.178155
0.172854
0.167211
0.161232
0.154927
0.148313
0.14141
0.134248
0.126863
0.119304
0.111629
0.103905
0.096211
0.0886278
0.0812362
0.0741085
0.0673011
0.0608493
0.0547637
0.049031
0.0436174
0.0384756
0.033552
0.0287944
0.0241587
0.0196125
0.0151371
0.0107263
0.00638298
0.00211446
0.938493
0.815176
0.694502
0.582766
0.485942
0.407624
0.348282
0.305821
0.276789
0.257521
0.244853
0.236386
0.230468
0.226031
0.222427
0.219281
0.216393
0.213665
0.211061
0.208579
0.206235
0.204049
0.202045
0.20024
0.198647
0.19727
0.19611
0.195162
0.194415
0.193856
0.193472
0.193246
0.193163
0.193206
0.193359
0.193603
0.193921
0.194294
0.194704
0.195135
0.19557
0.195994
0.196391
0.196737
0.196999
0.197126
0.197055
0.196712
0.196022
0.194922
0.19337
0.19135
0.188882
0.186022
0.182862
0.179525
0.176146
0.172851
0.169736
0.166856
0.16422
0.161802
0.159549
0.157397
0.155288
0.153196
0.151142
0.149193
0.147445
0.145994
0.144921
0.144282
0.144118
0.144466
0.145366
0.146873
0.14906
0.152019
0.155848
0.160625
0.166388
0.173105
0.180668
0.188894
0.197545
0.20635
0.215043
0.223381
0.231169
0.238267
0.244594
0.250118
0.254847
0.258816
0.262073
0.264672
0.266665
0.268099
0.269015
0.269447
0.269422
0.268966
0.268104
0.266865
0.265281
0.263393
0.261244
0.258884
0.256365
0.253735
0.251036
0.2483
0.245543
0.242771
0.239972
0.237125
0.234202
0.23117
0.227994
0.224641
0.221083
0.217293
0.213248
0.20893
0.204324
0.199416
0.194197
0.188663
0.182812
0.176646
0.170172
0.1634
0.156342
0.149015
0.141439
0.133639
0.125648
0.117508
0.109274
0.101013
0.0928035
0.0847298
0.0768758
0.0693153
0.0621042
0.0552737
0.0488285
0.0427485
0.0369955
0.0315208
0.0262743
0.0212114
0.0162977
0.01151
0.0068343
0.00226155
0.940292
0.820501
0.702966
0.593518
0.497828
0.419507
0.359314
0.315553
0.285113
0.26454
0.250753
0.241357
0.234659
0.22955
0.225344
0.221647
0.218244
0.215036
0.21199
0.209107
0.206408
0.203917
0.201657
0.199646
0.197893
0.196398
0.195156
0.194154
0.193375
0.192802
0.192414
0.192194
0.192124
0.192186
0.192364
0.192641
0.193001
0.193426
0.193898
0.194398
0.194908
0.195411
0.195885
0.196305
0.196634
0.196819
0.196791
0.196468
0.195765
0.194605
0.192933
0.190728
0.188013
0.184863
0.181405
0.177802
0.17423
0.170839
0.16773
0.16494
0.162446
0.160177
0.158041
0.155953
0.153873
0.151831
0.149924
0.148282
0.147029
0.146251
0.145996
0.14629
0.147151
0.148609
0.150708
0.153519
0.157133
0.16165
0.167157
0.173695
0.181232
0.189651
0.198746
0.208242
0.217831
0.227202
0.236082
0.244261
0.251604
0.258048
0.263596
0.268293
0.272214
0.275446
0.278075
0.280181
0.281828
0.283068
0.283936
0.284457
0.284644
0.284502
0.284032
0.283236
0.282116
0.280678
0.278937
0.276915
0.274641
0.272149
0.269476
0.266656
0.263717
0.260676
0.257542
0.254313
0.250977
0.247518
0.243918
0.240154
0.236206
0.232055
0.227682
0.223067
0.218193
0.213042
0.207599
0.201856
0.195806
0.18945
0.182795
0.175854
0.168642
0.161179
0.153483
0.145574
0.137472
0.129197
0.120775
0.112244
0.10365
0.095057
0.0865421
0.0781887
0.0700793
0.0622845
0.054854
0.0478119
0.0411558
0.0348617
0.0288911
0.0232
0.0177452
0.0124887
0.00739827
0.00244543
0.941996
0.825558
0.711039
0.603855
0.509383
0.431215
0.370346
0.325425
0.293662
0.271813
0.256895
0.246529
0.239
0.233162
0.228302
0.224006
0.220052
0.216339
0.212836
0.209549
0.206502
0.203721
0.20123
0.199043
0.197164
0.195587
0.194298
0.193275
0.192495
0.191932
0.19156
0.191358
0.191305
0.191383
0.191577
0.191873
0.192257
0.192711
0.193221
0.193767
0.194331
0.194892
0.195426
0.195903
0.196281
0.196503
0.196491
0.196155
0.195397
0.194128
0.192281
0.189835
0.186828
0.183369
0.179629
0.175821
0.172155
0.168793
0.165819
0.16323
0.160946
0.158846
0.156811
0.154781
0.15279
0.150964
0.149473
0.148466
0.148031
0.1482
0.148973
0.150348
0.152337
0.154977
0.158332
0.16249
0.167552
0.173605
0.18069
0.188773
0.197728
0.207331
0.217282
0.22724
0.236864
0.245859
0.254007
0.261181
0.267343
0.272528
0.276823
0.280344
0.283214
0.285552
0.28746
0.289021
0.290299
0.291336
0.292159
0.292782
0.293205
0.29342
0.293413
0.293167
0.292661
0.291875
0.290795
0.28941
0.287718
0.285726
0.283448
0.280906
0.278122
0.275122
0.271926
0.268551
0.265007
0.261298
0.257424
0.253383
0.249167
0.244768
0.240171
0.235359
0.230311
0.225004
0.219414
0.213522
0.207314
0.200785
0.193937
0.186785
0.17935
0.17166
0.163746
0.155639
0.147368
0.138953
0.130413
0.121764
0.113023
0.104219
0.0953933
0.0866064
0.0779315
0.0694496
0.0612377
0.0533584
0.0458517
0.0387317
0.0319889
0.0255956
0.0195126
0.0136955
0.00809824
0.00267438
0.943608
0.830346
0.718714
0.613746
0.520544
0.442658
0.381267
0.335322
0.302325
0.27924
0.263189
0.251825
0.24342
0.236806
0.231247
0.226314
0.22178
0.217544
0.213576
0.209889
0.206507
0.203458
0.200764
0.198433
0.196463
0.19484
0.193539
0.192529
0.191778
0.19125
0.190914
0.190743
0.190715
0.190811
0.191017
0.191321
0.191713
0.192179
0.192706
0.193276
0.19387
0.194467
0.195039
0.19555
0.195953
0.196183
0.196152
0.195759
0.194892
0.193452
0.191368
0.188629
0.185302
0.181544
0.177582
0.173676
0.170056
0.166873
0.164164
0.161857
0.159807
0.157858
0.155919
0.154018
0.152305
0.150991
0.150254
0.150183
0.15079
0.152041
0.15391
0.156388
0.159501
0.163305
0.167881
0.173325
0.179721
0.187106
0.195445
0.204608
0.214365
0.224406
0.234371
0.243905
0.2527
0.260534
0.267288
0.272948
0.277579
0.281303
0.284271
0.286637
0.288543
0.29011
0.291431
0.292574
0.293586
0.294494
0.295311
0.296039
0.296672
0.297196
0.297595
0.297843
0.297915
0.29778
0.297407
0.296764
0.295823
0.29456
0.292961
0.291018
0.288735
0.286122
0.283197
0.279984
0.276505
0.272784
0.268842
0.264697
0.260362
0.255844
0.25114
0.24624
0.241123
0.235763
0.230127
0.224185
0.21791
0.211286
0.204306
0.196977
0.18932
0.181368
0.173162
0.164749
0.156174
0.147482
0.138703
0.12986
0.120965
0.112024
0.103049
0.0940593
0.0850944
0.0762118
0.067483
0.0589834
0.0507811
0.0429255
0.0354422
0.0283314
0.021571
0.0151222
0.00893403
0.0029491
0.945132
0.834882
0.726006
0.6232
0.531302
0.453801
0.39202
0.345174
0.311029
0.28675
0.269572
0.257187
0.24787
0.240439
0.234143
0.228543
0.223408
0.218637
0.214206
0.210127
0.206428
0.203134
0.200265
0.197822
0.195794
0.194158
0.192878
0.191911
0.191215
0.190746
0.190464
0.190339
0.190344
0.190461
0.190678
0.190985
0.191375
0.191838
0.192364
0.192938
0.193542
0.194151
0.194736
0.195255
0.195652
0.195852
0.195757
0.195251
0.194212
0.192533
0.190151
0.187081
0.183437
0.179435
0.175361
0.17151
0.168105
0.165249
0.162901
0.160906
0.159072
0.157265
0.155489
0.153911
0.152778
0.152304
0.152589
0.153619
0.155328
0.157654
0.160569
0.16408
0.168232
0.173097
0.178761
0.185299
0.192746
0.201069
0.210141
0.219741
0.229563
0.239254
0.248454
0.256854
0.264232
0.270478
0.275588
0.27965
0.282813
0.285253
0.287147
0.288653
0.289901
0.290989
0.291982
0.292923
0.293834
0.294721
0.295586
0.296421
0.297216
0.297959
0.298634
0.299223
0.299706
0.300055
0.300241
0.300227
0.299975
0.299445
0.298596
0.297393
0.295809
0.293829
0.291448
0.288677
0.285535
0.282052
0.278263
0.274205
0.269911
0.265409
0.260714
0.25583
0.250742
0.245423
0.239839
0.233947
0.227709
0.221094
0.214083
0.206671
0.198871
0.190712
0.182235
0.173498
0.16456
0.155486
0.146334
0.137149
0.127963
0.11879
0.109631
0.100483
0.091349
0.0822478
0.0732184
0.0643184
0.0556155
0.0471755
0.0390499
0.0312674
0.0238302
0.0167151
0.00987798
0.00326112
0.946577
0.839187
0.732947
0.632244
0.541669
0.464636
0.40258
0.354941
0.319728
0.294296
0.275996
0.262573
0.252314
0.244032
0.236968
0.230677
0.224927
0.219619
0.21473
0.210273
0.206277
0.202764
0.199746
0.19722
0.195165
0.193544
0.192312
0.191413
0.190794
0.190401
0.190189
0.19012
0.190167
0.19031
0.190539
0.190846
0.191227
0.191677
0.19219
0.192751
0.193345
0.193944
0.194516
0.195011
0.195364
0.195488
0.195273
0.194589
0.193307
0.191324
0.1886
0.185192
0.181278
0.177141
0.173115
0.1695
0.166477
0.164063
0.162116
0.160416
0.158777
0.157164
0.155733
0.154764
0.154516
0.155113
0.156526
0.158651
0.161388
0.164678
0.168512
0.172917
0.17795
0.183685
0.190187
0.197489
0.205562
0.214293
0.223483
0.232848
0.242056
0.250764
0.25867
0.265556
0.271313
0.275941
0.279537
0.282263
0.28431
0.285867
0.287104
0.288153
0.289112
0.290042
0.290975
0.291922
0.292884
0.29385
0.294809
0.295749
0.29666
0.297533
0.298359
0.299129
0.299831
0.300452
0.30097
0.301362
0.301591
0.301618
0.301393
0.300866
0.299986
0.298707
0.296997
0.294837
0.292228
0.289188
0.28575
0.281961
0.277869
0.273521
0.268953
0.264185
0.259215
0.254024
0.248573
0.242817
0.236707
0.230197
0.223256
0.215866
0.208026
0.199756
0.191093
0.182091
0.172819
0.163353
0.153772
0.144147
0.134539
0.12499
0.115516
0.106119
0.0967857
0.0875051
0.078278
0.0691253
0.0600885
0.051223
0.0425856
0.0342219
0.0261556
0.0183839
0.0108789
0.00359393
0.947951
0.843284
0.73957
0.640911
0.551668
0.47517
0.412936
0.364598
0.328387
0.30184
0.282425
0.267951
0.256725
0.247565
0.239709
0.232712
0.226341
0.220498
0.215161
0.210343
0.20607
0.202361
0.199221
0.196638
0.194579
0.192997
0.191833
0.191021
0.190494
0.190192
0.19006
0.190056
0.190151
0.190324
0.190566
0.190872
0.191242
0.191674
0.192163
0.192699
0.193264
0.19383
0.194359
0.194794
0.195058
0.195052
0.194651
0.193718
0.192126
0.189788
0.186706
0.182999
0.17892
0.17481
0.171026
0.167833
0.165325
0.163406
0.161846
0.160407
0.158992
0.15772
0.156888
0.156804
0.157636
0.159361
0.161842
0.164932
0.168536
0.17262
0.17719
0.182287
0.187969
0.19429
0.201282
0.208923
0.217122
0.22571
0.234441
0.243019
0.251133
0.2585
0.26491
0.27025
0.274517
0.277802
0.280265
0.282097
0.283495
0.284628
0.285633
0.286602
0.287591
0.288621
0.289693
0.290793
0.291902
0.293
0.294071
0.295102
0.296087
0.297021
0.297903
0.298733
0.29951
0.30023
0.300887
0.301467
0.30195
0.302305
0.302491
0.302454
0.302135
0.301471
0.300403
0.298884
0.296887
0.294404
0.291454
0.288077
0.284326
0.280259
0.275929
0.271373
0.266605
0.261615
0.25637
0.25082
0.24491
0.238585
0.231799
0.224521
0.216738
0.208457
0.199707
0.190535
0.181007
0.171204
0.161215
0.151132
0.141041
0.131013
0.121097
0.111316
0.101669
0.0921375
0.082698
0.0733363
0.0640564
0.0548829
0.0458554
0.0370171
0.0284015
0.0200231
0.0118737
0.00392664
0.949261
0.847194
0.745903
0.649234
0.561325
0.485416
0.423083
0.374128
0.336981
0.309353
0.288833
0.273295
0.261083
0.251024
0.24236
0.234648
0.227655
0.221285
0.215514
0.210354
0.205826
0.201942
0.198701
0.19608
0.194036
0.192509
0.191428
0.190714
0.19029
0.190086
0.190041
0.190108
0.190255
0.190461
0.190719
0.191026
0.191383
0.191792
0.192249
0.192747
0.193265
0.193774
0.194227
0.19456
0.194683
0.194483
0.193828
0.192579
0.190623
0.18791
0.184502
0.180595
0.176511
0.172629
0.169287
0.166669
0.164749
0.163318
0.1621
0.16092
0.159831
0.159112
0.159119
0.160083
0.162018
0.16477
0.168145
0.172001
0.176267
0.180929
0.186007
0.19154
0.197574
0.204138
0.211221
0.218755
0.226609
0.234582
0.242428
0.249879
0.256682
0.262642
0.267644
0.271674
0.274805
0.277182
0.278986
0.280406
0.281607
0.282724
0.283843
0.285014
0.286249
0.287539
0.288858
0.290175
0.29146
0.292691
0.293853
0.294938
0.295946
0.296881
0.297751
0.298562
0.299321
0.300033
0.300701
0.301323
0.301891
0.302387
0.302783
0.303035
0.303087
0.302872
0.30232
0.301364
0.299947
0.298038
0.295629
0.292744
0.289427
0.285738
0.281739
0.277479
0.272987
0.268263
0.263281
0.257994
0.252341
0.246261
0.239696
0.232605
0.224961
0.216759
0.208016
0.198768
0.189077
0.179021
0.168692
0.158192
0.147625
0.137085
0.126653
0.116383
0.106298
0.0963975
0.0866553
0.0770388
0.0675202
0.0580878
0.0487494
0.039528
0.030451
0.02154
0.0128038
0.00423944
0.950514
0.850935
0.751975
0.657242
0.570665
0.495385
0.433022
0.383519
0.345491
0.316812
0.295194
0.278587
0.265373
0.2544
0.244919
0.236489
0.228881
0.221996
0.215807
0.210323
0.205557
0.201518
0.198193
0.195549
0.193532
0.192071
0.19108
0.190471
0.190154
0.190052
0.190095
0.190235
0.190436
0.190678
0.190952
0.191259
0.191602
0.191984
0.192403
0.192849
0.193301
0.193723
0.194063
0.194244
0.194167
0.19371
0.192736
0.191119
0.188777
0.185717
0.182075
0.178124
0.174238
0.170798
0.168071
0.166123
0.164796
0.163803
0.162893
0.162025
0.161421
0.161455
0.162437
0.164451
0.167362
0.170939
0.174982
0.179375
0.184073
0.189072
0.194396
0.200078
0.206143
0.212594
0.219388
0.22643
0.233571
0.240619
0.247358
0.253576
0.259101
0.263822
0.267711
0.270821
0.273269
0.275213
0.276823
0.278253
0.279627
0.281026
0.282491
0.284028
0.285618
0.287224
0.288807
0.290326
0.291753
0.293067
0.294262
0.295341
0.296312
0.297191
0.297992
0.298729
0.299416
0.300061
0.300674
0.301258
0.301815
0.302336
0.302805
0.303191
0.30345
0.30352
0.30333
0.302805
0.301872
0.300478
0.298592
0.296214
0.293372
0.290119
0.286514
0.282613
0.278454
0.274047
0.269374
0.26439
0.259036
0.253244
0.246951
0.240104
0.232665
0.224615
0.21596
0.206725
0.196962
0.186742
0.176155
0.165309
0.154315
0.143285
0.132323
0.121512
0.110907
0.100531
0.090377
0.0804133
0.0705973
0.0608891
0.0512635
0.0417132
0.0322467
0.0228802
0.0136315
0.00451897
0.951713
0.854521
0.757807
0.664959
0.579706
0.505088
0.442751
0.392761
0.353898
0.324196
0.30149
0.283809
0.269584
0.257688
0.247386
0.238243
0.230029
0.222643
0.216054
0.210264
0.205279
0.201099
0.197702
0.195045
0.193062
0.191669
0.190771
0.190266
0.190055
0.190052
0.190183
0.190394
0.190648
0.190924
0.191215
0.191522
0.191848
0.192196
0.192566
0.192943
0.193305
0.193608
0.193791
0.193769
0.193433
0.192659
0.191319
0.189313
0.186611
0.183289
0.179563
0.175772
0.172307
0.169501
0.167509
0.166254
0.165472
0.164859
0.164264
0.163809
0.163845
0.164744
0.166692
0.16962
0.17329
0.177451
0.181924
0.186621
0.191514
0.196604
0.201912
0.207461
0.213261
0.219294
0.225502
0.231787
0.23801
0.244013
0.249632
0.254724
0.259193
0.263002
0.266182
0.268817
0.271035
0.272975
0.27477
0.276526
0.278314
0.280165
0.282077
0.284025
0.285964
0.287847
0.289627
0.29127
0.292751