# vtk DataFile Version 2.0
Velocidades
ASCII

DATASET RECTILINEAR_GRID
DIMENSIONS   156   312   1

X_COORDINATES   156   double
0.000976704   0.00296457   0.00502244   0.00715246   0.00935683   0.0116378   0.0139977   0.0164387   0.0189634   0.0215741   0.0242731   0.0270631   0.0299464   0.0329257   0.0360034   0.0391822   0.0424647   0.0458533   0.0493508   0.0529598   0.0566829   0.0605227   0.0644818   0.0685627   0.0727681   0.0771004   0.0815622   0.0861559   0.0908839   0.0957484   0.100752   0.105896   0.111184   0.116616   0.122196   0.127924   0.133803   0.139833   0.146016   0.152354   0.158847   0.165496   0.172302   0.179264   0.186384   0.193661   0.201095   0.208685   0.216431   0.224331   0.232384   0.240589   0.248943   0.257444   0.26609   0.274878   0.283805   0.292867   0.302061   0.311382   0.320827   0.33039   0.340066   0.349851   0.359739   0.369724   0.3798   0.38996   0.400198   0.410508   0.420883   0.431314   0.441796   0.45232   0.462879   0.473465   0.484071   0.494689   0.505311   0.515929   0.526535   0.537121   0.54768   0.558204   0.568686   0.579117   0.589492   0.599802   0.61004   0.6202   0.630276   0.640261   0.650149   0.659934   0.66961   0.679173   0.688618   0.697939   0.707133   0.716195   0.725122   0.73391   0.742556   0.751057   0.759411   0.767616   0.775669   0.783569   0.791315   0.798905   0.806339   0.813616   0.820736   0.827698   0.834504   0.841153   0.847646   0.853984   0.860167   0.866197   0.872076   0.877804   0.883384   0.888816   0.894104   0.899248   0.904252   0.909116   0.913844   0.918438   0.9229   0.927232   0.931437   0.935518   0.939477   0.943317   0.94704   0.950649   0.954147   0.957535   0.960818   0.963997   0.967074   0.970054   0.972937   0.975727   0.978426   0.981037   0.983561   0.986002   0.988362   0.990643   0.992848   0.994978   0.997035   0.999023   
Y_COORDINATES   312   double
0.00193644   0.00584325   0.00981846   0.0138631   0.0179783   0.0221651   0.0264246   0.0307579   0.0351661   0.0396503   0.0442117   0.0488513   0.0535705   0.0583703   0.0632518   0.0682164   0.0732651   0.0783992   0.0836199   0.0889284   0.0943259   0.0998137   0.105393   0.111065   0.116831   0.122692   0.12865   0.134706   0.140861   0.147116   0.153473   0.159933   0.166497   0.173167   0.179944   0.186829   0.193823   0.200928   0.208145   0.215476   0.222922   0.230483   0.238162   0.24596   0.253877   0.261916   0.270077   0.278362   0.286772   0.295309   0.303973   0.312766   0.321689   0.330743   0.33993   0.34925   0.358706   0.368297   0.378025   0.387892   0.397899   0.408045   0.418334   0.428764   0.439339   0.450058   0.460923   0.471934   0.483093   0.4944   0.505856   0.517462   0.529218   0.541126   0.553187   0.5654   0.577766   0.590287   0.602962   0.615792   0.628778   0.64192   0.655217   0.668672   0.682283   0.696051   0.709976   0.724059   0.738299   0.752696   0.76725   0.781961   0.796829   0.811853   0.827034   0.84237   0.857861   0.873508   0.889308   0.905262   0.921369   0.937627   0.954037   0.970597   0.987305   1.00416   1.02117   1.03831   1.05561   1.07304   1.09062   1.10834   1.12619   1.14418   1.16231   1.18056   1.19895   1.21747   1.23611   1.25488   1.27377   1.29278   1.31191   1.33115   1.35051   1.36997   1.38954   1.40922   1.42899   1.44887   1.46884   1.4889   1.50906   1.5293   1.54962   1.57002   1.5905   1.61105   1.63167   1.65236   1.67311   1.69392   1.71479   1.7357   1.75667   1.77768   1.79873   1.81981   1.84093   1.86208   1.88326   1.90445   1.92567   1.9469   1.96813   1.98938   2.01062   2.03187   2.0531   2.07433   2.09555   2.11674   2.13792   2.15907   2.18019   2.20127   2.22232   2.24333   2.2643   2.28521   2.30608   2.32689   2.34764   2.36833   2.38895   2.4095   2.42998   2.45038   2.4707   2.49094   2.5111   2.53116   2.55113   2.57101   2.59078   2.61046   2.63003   2.64949   2.66885   2.68809   2.70722   2.72623   2.74512   2.76389   2.78253   2.80105   2.81944   2.83769   2.85582   2.87381   2.89166   2.90938   2.92696   2.94439   2.96169   2.97883   2.99584   3.01269   3.0294   3.04596   3.06237   3.07863   3.09474   3.11069   3.12649   3.14214   3.15763   3.17297   3.18815   3.20317   3.21804   3.23275   3.2473   3.2617   3.27594   3.29002   3.30395   3.31772   3.33133   3.34478   3.35808   3.37122   3.38421   3.39704   3.40971   3.42223   3.4346   3.44681   3.45887   3.47078   3.48254   3.49414   3.5056   3.51691   3.52807   3.53908   3.54994   3.56066   3.57124   3.58167   3.59195   3.6021   3.61211   3.62197   3.6317   3.64129   3.65075   3.66007   3.66926   3.67831   3.68723   3.69603   3.70469   3.71323   3.72164   3.72992   3.73808   3.74612   3.75404   3.76184   3.76952   3.77708   3.78452   3.79185   3.79907   3.80618   3.81317   3.82006   3.82683   3.8335   3.84007   3.84653   3.85288   3.85914   3.86529   3.87135   3.87731   3.88317   3.88894   3.89461   3.90019   3.90567   3.91107   3.91638   3.9216   3.92673   3.93178   3.93675   3.94163   3.94643   3.95115   3.95579   3.96035   3.96483   3.96924   3.97358   3.97783   3.98202   3.98614   3.99018   3.99416   3.99806   
Z_COORDINATES   1   double
0

POINT_DATA   48672
VECTORS Velocidades double

-0.0020209   0.00400669   0.0
-0.00848978   0.00851813   0.0
-0.0184648   0.0102253   0.0
-0.0295615   0.00995569   0.0
-0.0400515   0.00849917   0.0
-0.0488565   0.00648525   0.0
-0.055441   0.00435699   0.0
-0.0596738   0.00239167   0.0
-0.0616957   0.000737647   0.0
-0.0618089   -0.000548228   0.0
-0.0603924   -0.00146892   0.0
-0.0578413   -0.00206268   0.0
-0.054526   -0.00238508   0.0
-0.0507692   -0.00249673   0.0
-0.0468343   -0.00245539   0.0
-0.0429236   -0.00231153   0.0
-0.039182   -0.00210635   0.0
-0.0357047   -0.00187155   0.0
-0.032546   -0.00163003   0.0
-0.0297284   -0.00139719   0.0
-0.0272518   -0.00118244   0.0
-0.0251002   -0.000990649   0.0
-0.0232483   -0.000823467   0.0
-0.0216659   -0.000680391   0.0
-0.0203214   -0.000559629   0.0
-0.0191839   -0.000458719   0.0
-0.0182249   -0.000374966   0.0
-0.0174187   -0.000305713   0.0
-0.0167431   -0.00024851   0.0
-0.0161791   -0.000201191   0.0
-0.0157107   -0.000161895   0.0
-0.0153248   -0.000129065   0.0
-0.0150107   -0.000101414   0.0
-0.0147596   -7.78953e-05   0.0
-0.0145647   -5.7668e-05   0.0
-0.0144205   -4.00608e-05   0.0
-0.0143227   -2.45453e-05   0.0
-0.0142681   -1.07108e-05   0.0
-0.0142541   1.75567e-06   0.0
-0.0142786   1.30855e-05   0.0
-0.01434   2.34412e-05   0.0
-0.014437   3.29264e-05   0.0
-0.0145681   4.15935e-05   0.0
-0.0147319   4.94497e-05   0.0
-0.0149268   5.64613e-05   0.0
-0.0151505   6.25572e-05   0.0
-0.0154005   6.76321e-05   0.0
-0.0156734   7.15491e-05   0.0
-0.0159648   7.41428e-05   0.0
-0.0162695   7.52239e-05   0.0
-0.016581   7.45845e-05   0.0
-0.0168915   7.20061e-05   0.0
-0.0171919   6.72696e-05   0.0
-0.0174715   6.01694e-05   0.0
-0.0177184   5.05295e-05   0.0
-0.0179196   3.82244e-05   0.0
-0.0180609   2.32017e-05   0.0
-0.0181278   5.50866e-06   0.0
-0.0181057   -1.4682e-05   0.0
-0.0179808   -3.70472e-05   0.0
-0.0177411   -6.10935e-05   0.0
-0.0173772   -8.61474e-05   0.0
-0.0168833   -0.00011136   0.0
-0.0162587   -0.000135732   0.0
-0.0155081   -0.000158161   0.0
-0.0146424   -0.000177515   0.0
-0.013679   -0.000192726   0.0
-0.012641   -0.000202899   0.0
-0.0115562   -0.000207417   0.0
-0.0104556   -0.000206035   0.0
-0.00937084   -0.000198945   0.0
-0.00833193   -0.000186796   0.0
-0.00736457   -0.000170675   0.0
-0.0064877   -0.000152047   0.0
-0.00571155   -0.000132659   0.0
-0.00503621   -0.000114424   0.0
-0.00445099   -9.9285e-05   0.0
-0.00393464   -8.90584e-05   0.0
-0.00345662   -8.52382e-05   0.0
-0.00297964   -8.87455e-05   0.0
-0.00246386   -9.96039e-05   0.0
-0.00187304   -0.000116556   0.0
-0.00118263   -0.000136705   0.0
-0.000389012   -0.00015538   0.0
0.00048199   -0.000166475   0.0
0.00137079   -0.000163498   0.0
0.00218708   -0.000141168   0.0
0.00282141   -9.69719e-05   0.0
0.00316231   -3.17437e-05   0.0
0.00311209   5.12192e-05   0.0
0.00259484   0.000148023   0.0
0.0015551   0.00025578   0.0
-4.8618e-05   0.000372963   0.0
-0.00224892   0.000498593   0.0
-0.0050698   0.000631168   0.0
-0.00852288   0.000768105   0.0
-0.0126028   0.000905817   0.0
-0.017284   0.00104007   0.0
-0.0225196   0.00116631   0.0
-0.0282417   0.00127993   0.0
-0.0343627   0.0013764   0.0
-0.0407782   0.00145153   0.0
-0.0473701   0.00150161   0.0
-0.0540105   0.0015237   0.0
-0.060567   0.00151575   0.0
-0.0669071   0.00147668   0.0
-0.0729034   0.00140636   0.0
-0.0784371   0.00130547   0.0
-0.0834015   0.00117546   0.0
-0.0877042   0.00101839   0.0
-0.091269   0.000836885   0.0
-0.0940372   0.000634162   0.0
-0.0959686   0.000413987   0.0
-0.0970424   0.000180697   0.0
-0.0972579   -6.08344e-05   0.0
-0.0966343   -0.000305279   0.0
-0.0952103   -0.000546999   0.0
-0.093043   -0.000780253   0.0
-0.0902059   -0.000999455   0.0
-0.086786   -0.00119946   0.0
-0.0828805   -0.00137583   0.0
-0.0785927   -0.0015251   0.0
-0.074028   -0.00164496   0.0
-0.0692895   -0.00173431   0.0
-0.0644745   -0.00179332   0.0
-0.059671   -0.00182332   0.0
-0.0549557   -0.00182663   0.0
-0.050392   -0.00180637   0.0
-0.04603   -0.0017662   0.0
-0.0419058   -0.00171006   0.0
-0.0380429   -0.00164199   0.0
-0.0344532   -0.00156586   0.0
-0.0311388   -0.00148527   0.0
-0.0280936   -0.00140339   0.0
-0.0253054   -0.0013229   0.0
-0.0227573   -0.00124595   0.0
-0.0204298   -0.00117415   0.0
-0.0183017   -0.00110854   0.0
-0.0163518   -0.00104968   0.0
-0.0145597   -0.000997634   0.0
-0.0129067   -0.000952055   0.0
-0.011376   -0.0009122   0.0
-0.00995368   -0.000876998   0.0
-0.00862854   -0.000845088   0.0
-0.00739234   -0.000814857   0.0
-0.00623986   -0.000784465   0.0
-0.00516879   -0.000751857   0.0
-0.00417975   -0.000714767   0.0
-0.0032761   -0.000670714   0.0
-0.00246386   -0.000617034   0.0
-0.00175146   -0.000550999   0.0
-0.00114923   -0.000470145   0.0
-0.000668359   -0.000373038   0.0
-0.000318657   -0.000260874   0.0
-0.000104234   -0.000140591   0.0
-1.54105e-05   -3.05532e-05   0.0
-0.00330699   0.0146848   0.0
-0.0140943   0.0316125   0.0
-0.0313476   0.0388481   0.0
-0.0516169   0.0390022   0.0
-0.0721116   0.0345717   0.0
-0.0907609   0.0276659   0.0
-0.10622   0.0198932   0.0
-0.117801   0.0123608   0.0
-0.125352   0.00574018   0.0
-0.129112   0.000360547   0.0
-0.129566   -0.00369421   0.0
-0.127331   -0.00649989   0.0
-0.123054   -0.00822286   0.0
-0.117355   -0.00906881   0.0
-0.110782   -0.00924787   0.0
-0.103791   -0.00895297   0.0
-0.0967418   -0.0083486   0.0
-0.0899018   -0.00756658   0.0
-0.0834546   -0.00670672   0.0
-0.0775145   -0.0058401   0.0
-0.0721403   -0.00501376   0.0
-0.0673487   -0.00425575   0.0
-0.0631269   -0.00357993   0.0
-0.0594426   -0.00299013   0.0
-0.056252   -0.00248364   0.0
-0.0535065   -0.00205381   0.0
-0.0511564   -0.00169203   0.0
-0.0491545   -0.00138909   0.0
-0.0474573   -0.00113597   0.0
-0.0460262   -0.000924377   0.0
-0.0448279   -0.000746991   0.0
-0.0438339   -0.000597511   0.0
-0.0430205   -0.000470634   0.0
-0.0423682   -0.000361976   0.0
-0.0418612   -0.000267956   0.0
-0.0414868   -0.000185692   0.0
-0.041235   -0.000112893   0.0
-0.0410977   -4.7769e-05   0.0
-0.0410689   1.10487e-05   0.0
-0.0411434   6.45678e-05   0.0
-0.0413169   0.000113489   0.0
-0.0415857   0.000158246   0.0
-0.0419458   0.000199039   0.0
-0.0423929   0.000235859   0.0
-0.0429218   0.000268506   0.0
-0.0435261   0.000296608   0.0
-0.0441977   0.000319635   0.0
-0.0449263   0.000336912   0.0
-0.0456992   0.000347641   0.0
-0.0465007   0.000350916   0.0
-0.0473121   0.000345759   0.0
-0.0481108   0.000331158   0.0
-0.048871   0.000306117   0.0
-0.049563   0.000269722   0.0
-0.0501538   0.000221224   0.0
-0.0506078   0.000160129   0.0
-0.050887   8.63042e-05   0.0
-0.0509527   9.85195e-08   0.0
-0.0507673   -9.75476e-05   0.0
-0.0502953   -0.000204995   0.0
-0.0495069   -0.000319824   0.0
-0.0483796   -0.000438806   0.0
-0.0469011   -0.000557929   0.0
-0.045072   -0.000672524   0.0
-0.0429078   -0.000777487   0.0
-0.04044   -0.000867612   0.0
-0.0377162   -0.000938013   0.0
-0.034799   -0.0009846   0.0
-0.0317629   -0.00100456   0.0
-0.0286904   -0.000996779   0.0
-0.0256659   -0.000962109   0.0
-0.0227699   -0.000903499   0.0
-0.0200718   -0.000825914   0.0
-0.0176244   -0.000736074   0.0
-0.0154577   -0.000642046   0.0
-0.0135758   -0.000552722   0.0
-0.0119544   -0.000477182   0.0
-0.0105414   -0.000423943   0.0
-0.00926013   -0.000400003   0.0
-0.00801624   -0.000409633   0.0
-0.00670891   -0.000452832   0.0
-0.00524744   -0.000523552   0.0
-0.00357263   -0.00060809   0.0
-0.00168091   -0.000684506   0.0
0.000353786   -0.000724224   0.0
0.00236833   -0.000696704   0.0
0.00411695   -0.000576632   0.0
0.00529878   -0.000350925   0.0
0.00559993   -2.16925e-05   0.0
0.00473516   0.000397061   0.0
0.00247414   0.000887032   0.0
-0.00135244   0.00143239   0.0
-0.00685938   0.00202167   0.0
-0.014114   0.00264516   0.0
-0.0231372   0.00329119   0.0
-0.0338993   0.00394449   0.0
-0.0463161   0.00458665   0.0
-0.0602478   0.0051973   0.0
-0.0755001   0.00575522   0.0
-0.0918273   0.00623915   0.0
-0.108939   0.00662879   0.0
-0.126506   0.00690594   0.0
-0.144179   0.00705574   0.0
-0.161595   0.00706762   0.0
-0.178397   0.00693583   0.0
-0.194245   0.00665944   0.0
-0.208832   0.00624186   0.0
-0.221886   0.00569008   0.0
-0.23318   0.00501403   0.0
-0.242536   0.00422597   0.0
-0.24982   0.00334027   0.0
-0.254948   0.00237318   0.0
-0.257887   0.0013429   0.0
-0.258646   0.000269484   0.0
-0.257284   -0.000825337   0.0
-0.253902   -0.0019185   0.0
-0.248641   -0.00298622   0.0
-0.241678   -0.00400488   0.0
-0.233218   -0.00495197   0.0
-0.223493   -0.00580722   0.0
-0.212745   -0.00655363   0.0
-0.201224   -0.00717836   0.0
-0.189177   -0.00767332   0.0
-0.176842   -0.00803551   0.0
-0.164437   -0.00826697   0.0
-0.152156   -0.00837434   0.0
-0.140167   -0.00836822   0.0
-0.128606   -0.0082623   0.0
-0.117579   -0.00807235   0.0
-0.107161   -0.0078153   0.0
-0.097399   -0.00750823   0.0
-0.088315   -0.0071676   0.0
-0.0799091   -0.00680861   0.0
-0.0721641   -0.00644466   0.0
-0.065049   -0.00608707   0.0
-0.0585235   -0.00574487   0.0
-0.0525411   -0.00542473   0.0
-0.0470528   -0.00513096   0.0
-0.0420094   -0.0048657   0.0
-0.037364   -0.00462899   0.0
-0.0330739   -0.00441901   0.0
-0.0291016   -0.0042323   0.0
-0.0254156   -0.00406396   0.0
-0.0219915   -0.00390791   0.0
-0.0188112   -0.00375706   0.0
-0.0158636   -0.00360353   0.0
-0.0131436   -0.00343876   0.0
-0.010652   -0.00325372   0.0
-0.00839436   -0.00303904   0.0
-0.00638032   -0.00278536   0.0
-0.00462209   -0.0024839   0.0
-0.0031331   -0.00212755   0.0
-0.00192608   -0.00171282   0.0
-0.00101128   -0.00124327   0.0
-0.00039514   -0.000734933   0.0
-8.11407e-05   -0.000224797   0.0
-0.00332618   0.0281838   0.0
-0.0146205   0.0619871   0.0
-0.0334652   0.0780785   0.0
-0.0565444   0.0806759   0.0
-0.0809335   0.0739385   0.0
-0.104253   0.0616034   0.0
-0.124761   0.0467366   0.0
-0.14137   0.031624   0.0
-0.153588   0.0177897   0.0
-0.161406   0.0060982   0.0
-0.165164   -0.00309982   0.0
-0.165422   -0.00981576   0.0
-0.162848   -0.0142873   0.0
-0.158125   -0.0168702   0.0
-0.151899   -0.0179593   0.0
-0.144738   -0.0179371   0.0
-0.137114   -0.0171433   0.0
-0.129401   -0.0158605   0.0
-0.121879   -0.0143114   0.0
-0.114744   -0.0126613   0.0
-0.108121   -0.0110263   0.0
-0.102079   -0.00948176   0.0
-0.0966451   -0.00807113   0.0
-0.0918129   -0.00681458   0.0
-0.0875566   -0.00571597   0.0
-0.0838375   -0.00476864   0.0
-0.0806101   -0.00395973   0.0
-0.0778272   -0.00327343   0.0
-0.0754428   -0.00269311   0.0
-0.0734141   -0.00220267   0.0
-0.0717026   -0.0017874   0.0
-0.0702747   -0.00143425   0.0
-0.0691017   -0.00113202   0.0
-0.0681595   -0.00087127   0.0
-0.067428   -0.00064418   0.0
-0.0668911   -0.000444373   0.0
-0.0665358   -0.000266739   0.0
-0.0663517   -0.000107261   0.0
-0.0663301   3.71313e-05   0.0
-0.0664642   0.000168694   0.0
-0.0667478   0.00028897   0.0
-0.0671749   0.000398878   0.0
-0.0677394   0.000498779   0.0
-0.0684339   0.000588532   0.0
-0.0692498   0.000667542   0.0
-0.0701761   0.000734798   0.0
-0.0711991   0.000788909   0.0
-0.0723016   0.000828146   0.0
-0.0734626   0.00085049   0.0
-0.0746561   0.000853693   0.0
-0.0758516   0.000835358   0.0
-0.077013   0.000793046   0.0
-0.0780989   0.000724405   0.0
-0.0790628   0.00062734   0.0
-0.0798534   0.000500205   0.0
-0.0804157   0.000342037   0.0
-0.0806924   0.000152801   0.0
-0.0806256   -6.63362e-05   0.0
-0.0801598   -0.00031275   0.0
-0.079244   -0.000582124   0.0
-0.0778361   -0.000868288   0.0
-0.0759059   -0.00116316   0.0
-0.0734391   -0.00145685   0.0
-0.0704407   -0.00173799   0.0
-0.066938   -0.00199422   0.0
-0.0629816   -0.00221307   0.0
-0.0586459   -0.00238285   0.0
-0.0540268   -0.00249383   0.0
-0.0492377   -0.00253934   0.0
-0.0444032   -0.00251671   0.0
-0.0396509   -0.00242797   0.0
-0.0351027   -0.00228014   0.0
-0.0308648   -0.00208507   0.0
-0.027019   -0.00185887   0.0
-0.0236142   -0.00162099   0.0
-0.020661   -0.00139301   0.0
-0.0181281   -0.00119704   0.0
-0.0159425   -0.00105391   0.0
-0.0139946   -0.000980703   0.0
-0.0121486   -0.000987717   0.0
-0.0102598   -0.00107462   0.0
-0.00819969   -0.00122614   0.0
-0.00588891   -0.00140819   0.0
-0.00333315   -0.00156665   0.0
-0.000656156   -0.00163119   0.0
0.00188261   -0.00152643   0.0
0.00389663   -0.00118892   0.0
0.0049119   -0.000583973   0.0
0.0044289   0.000286576   0.0
0.00198687   0.00139066   0.0
-0.00279002   0.00268222   0.0
-0.0101725   0.00411629   0.0
-0.0203247   0.00565427   0.0
-0.0333086   0.00726008   0.0
-0.0490863   0.00889436   0.0
-0.0675235   0.0105125   0.0
-0.0883936   0.0120658   0.0
-0.111385   0.0135036   0.0
-0.136109   0.0147744   0.0
-0.162109   0.0158278   0.0
-0.188868   0.0166167   0.0
-0.215835   0.0171017   0.0
-0.242441   0.0172534   0.0
-0.268125   0.0170551   0.0
-0.292362   0.016503   0.0
-0.314678   0.015605   0.0
-0.334667   0.0143793   0.0
-0.351999   0.0128514   0.0
-0.366418   0.0110523   0.0
-0.377747   0.00901712   0.0
-0.385883   0.00678431   0.0
-0.39079   0.0043952   0.0
-0.392501   0.00189405   0.0
-0.391106   -0.000672071   0.0
-0.386753   -0.00325366   0.0
-0.379643   -0.00579956   0.0
-0.370019   -0.00825823   0.0
-0.358163   -0.0105795   0.0
-0.344387   -0.0127165   0.0
-0.329022   -0.0146279   0.0
-0.312412   -0.0162798   0.0
-0.294897   -0.0176477   0.0
-0.276811   -0.018717   0.0
-0.258467   -0.0194844   0.0
-0.240151   -0.0199568   0.0
-0.222115   -0.0201507   0.0
-0.204574   -0.0200913   0.0
-0.187701   -0.0198096   0.0
-0.171631   -0.0193413   0.0
-0.156456   -0.0187243   0.0
-0.142233   -0.0179965   0.0
-0.128987   -0.0171947   0.0
-0.116714   -0.0163527   0.0
-0.105388   -0.0155003   0.0
-0.0949652   -0.0146625   0.0
-0.0853889   -0.0138595   0.0
-0.0765956   -0.0131058   0.0
-0.0685179   -0.0124109   0.0
-0.0610891   -0.0117792   0.0
-0.0542453   -0.0112103   0.0
-0.0479286   -0.0106997   0.0
-0.0420881   -0.010239   0.0
-0.036681   -0.0098169   0.0
-0.0316737   -0.00941936   0.0
-0.0270411   -0.00903038   0.0
-0.0227669   -0.00863245   0.0
-0.0188423   -0.00820715   0.0
-0.0152652   -0.00773566   0.0
-0.0120391   -0.00719936   0.0
-0.00917142   -0.00658063   0.0
-0.00667232   -0.0058639   0.0
-0.00455321   -0.00503715   0.0
-0.00282585   -0.00409396   0.0
-0.00150221   -0.00303619   0.0
-0.000595687   -0.00187698   0.0
-0.000124268   -0.000643568   0.0
-0.00295076   0.0411739   0.0
-0.013311   0.0927327   0.0
-0.031224   0.119381   0.0
-0.0539575   0.126287   0.0
-0.0788857   0.118837   0.0
-0.103694   0.102142   0.0
-0.126532   0.0806372   0.0
-0.146094   0.0578298   0.0
-0.161627   0.0362195   0.0
-0.172867   0.0173601   0.0
-0.179942   0.00201604   0.0
-0.183251   -0.00964018   0.0
-0.183356   -0.0178328   0.0
-0.18089   -0.0230151   0.0
-0.176483   -0.0257411   0.0
-0.170716   -0.026576   0.0
-0.164096   -0.0260411   0.0
-0.157042   -0.0245836   0.0
-0.149886   -0.0225663   0.0
-0.142877   -0.0202678   0.0
-0.13619   -0.0178913   0.0
-0.129942   -0.0155758   0.0
-0.1242   -0.0134089   0.0
-0.118995   -0.011439   0.0
-0.114329   -0.00968587   0.0
-0.110187   -0.00815009   0.0
-0.106541   -0.00681982   0.0
-0.103358   -0.00567629   0.0
-0.1006   -0.00469757   0.0
-0.0982325   -0.00386118   0.0
-0.09622   -0.00314561   0.0
-0.0945318   -0.0025313   0.0
-0.0931407   -0.00200098   0.0
-0.0920229   -0.00153986   0.0
-0.0911587   -0.00113547   0.0
-0.0905317   -0.000777533   0.0
-0.0901282   -0.000457739   0.0
-0.0899373   -0.000169525   0.0
-0.0899496   9.21276e-05   0.0
-0.0901572   0.000330876   0.0
-0.0905526   0.000549168   0.0
-0.0911282   0.000748373   0.0
-0.0918755   0.000928886   0.0
-0.0927846   0.00109022   0.0
-0.093843   0.00123109   0.0
-0.0950351   0.00134945   0.0
-0.0963416   0.00144262   0.0
-0.0977383   0.00150733   0.0
-0.0991956   0.00153979   0.0
-0.100678   0.0015359   0.0
-0.102144   0.00149132   0.0
-0.103545   0.00140171   0.0
-0.104826   0.001263   0.0
-0.105925   0.00107166   0.0
-0.106776   0.000825089   0.0
-0.107309   0.000522004   0.0
-0.10745   0.000162879   0.0
-0.107127   -0.000249592   0.0
-0.106273   -0.000710068   0.0
-0.104827   -0.00121019   0.0
-0.102739   -0.00173832   0.0
-0.0999766   -0.00227951   0.0
-0.0965267   -0.00281573   0.0
-0.0924016   -0.00332643   0.0
-0.0876406   -0.00378953   0.0
-0.0823124   -0.00418279   0.0
-0.0765145   -0.00448556   0.0
-0.0703703   -0.00468068   0.0
-0.0640247   -0.00475641   0.0
-0.0576357   -0.00470809   0.0
-0.0513655   -0.00453933   0.0
-0.0453689   -0.00426254   0.0
-0.0397821   -0.00389871   0.0
-0.0347113   -0.00347653   0.0
-0.0302227   -0.00303077   0.0
-0.0263351   -0.00260015   0.0
-0.0230154   -0.0022246   0.0
-0.0201786   -0.00194174   0.0
-0.0176942   -0.00178243   0.0
-0.0153989   -0.00176499   0.0
-0.01312   -0.00188808   0.0
-0.0107072   -0.00212285   0.0
-0.0080751   -0.00240607   0.0
-0.00524961   -0.00263795   0.0
-0.0024098   -0.00268925   0.0
8.94203e-05   -0.0024212   0.0
0.00172809   -0.00171588   0.0
0.00187142   -0.000506591   0.0
-0.000150239   0.00120698   0.0
-0.00495534   0.00336759   0.0
-0.0130435   0.00588653   0.0
-0.0247574   0.00866913   0.0
-0.0402691   0.0116256   0.0
-0.0595811   0.0146688   0.0
-0.082535   0.0177088   0.0
-0.108828   0.0206534   0.0
-0.138035   0.0234092   0.0
-0.169626   0.0258839   0.0
-0.202986   0.0279863   0.0
-0.237429   0.0296293   0.0
-0.272216   0.0307354   0.0
-0.30659   0.0312446   0.0
-0.339805   0.0311195   0.0
-0.371168   0.0303484   0.0
-0.400059   0.0289438   0.0
-0.425959   0.0269391   0.0
-0.448458   0.0243829   0.0
-0.46725   0.0213341   0.0
-0.482137   0.0178583   0.0
-0.493016   0.0140246   0.0
-0.499867   0.00990487   0.0
-0.502749   0.00557331   0.0
-0.501787   0.00110663   0.0
-0.49717   -0.0034159   0.0
-0.489134   -0.00791286   0.0
-0.477967   -0.0123017   0.0
-0.463993   -0.0165006   0.0
-0.447567   -0.0204311   0.0
-0.429069   -0.0240208   0.0
-0.40889   -0.0272068   0.0
-0.38743   -0.0299385   0.0
-0.365077   -0.03218   0.0
-0.342208   -0.033912   0.0
-0.319175   -0.0351321   0.0
-0.296296   -0.0358549   0.0
-0.273851   -0.0361101   0.0
-0.252079   -0.0359402   0.0
-0.231172   -0.0353982   0.0
-0.211277   -0.0345438   0.0
-0.192496   -0.0334401   0.0
-0.174891   -0.0321509   0.0
-0.158488   -0.0307373   0.0
-0.143279   -0.0292559   0.0
-0.129234   -0.0277565   0.0
-0.1163   -0.0262812   0.0
-0.10441   -0.0248636   0.0
-0.0934908   -0.0235281   0.0
-0.0834629   -0.0222903   0.0
-0.0742478   -0.0211574   0.0
-0.0657707   -0.0201284   0.0
-0.0579627   -0.0191954   0.0
-0.0507632   -0.018344   0.0
-0.0441209   -0.0175549   0.0
-0.0379942   -0.0168044   0.0
-0.0323512   -0.016066   0.0
-0.0271693   -0.015311   0.0
-0.0224343   -0.0145097   0.0
-0.018139   -0.0136327   0.0
-0.014282   -0.0126514   0.0
-0.0108661   -0.0115394   0.0
-0.00789776   -0.0102737   0.0
-0.0053853   -0.00883573   0.0
-0.00333919   -0.0072125   0.0
-0.00177217   -0.00539768   0.0
-0.000700414   -0.00339193   0.0
-0.000145316   -0.00120214   0.0
-0.00249281   0.0526333   0.0
-0.011491   0.121032   0.0
-0.0275242   0.158742   0.0
-0.048515   0.171275   0.0
-0.0722925   0.16474   0.0
-0.096792   0.14524   0.0
-0.120229   0.118336   0.0
-0.141225   0.0886413   0.0
-0.158858   0.0596232   0.0
-0.17266   0.0335845   0.0
-0.182548   0.0117974   0.0
-0.188739   -0.00528262   0.0
-0.19165   -0.0177789   0.0
-0.191807   -0.0261744   0.0
-0.189771   -0.0311341   0.0
-0.186085   -0.0333753   0.0
-0.18124   -0.0335836   0.0
-0.175661   -0.0323636   0.0
-0.169693   -0.0302176   0.0
-0.163611   -0.0275413   0.0
-0.15762   -0.0246316   0.0
-0.15187   -0.0216991   0.0
-0.14646   -0.0188839   0.0
-0.141452   -0.0162708   0.0
-0.136879   -0.0139036   0.0
-0.13275   -0.0117968   0.0
-0.129061   -0.00994561   0.0
-0.125798   -0.0083331   0.0
-0.122939   -0.00693597   0.0
-0.120461   -0.00572827   0.0
-0.11834   -0.00468398   0.0
-0.116552   -0.00377854   0.0
-0.115075   -0.00298979   0.0
-0.113891   -0.00229827   0.0
-0.112983   -0.00168737   0.0
-0.112336   -0.00114321   0.0
-0.111939   -0.000654483   0.0
-0.111782   -0.000212231   0.0
-0.111855   0.000190386   0.0
-0.112151   0.00055829   0.0
-0.11266   0.000894664   0.0
-0.113375   0.00120112   0.0
-0.114285   0.00147782   0.0
-0.115377   0.00172363   0.0
-0.116634   0.0019362   0.0
-0.118036   0.00211207   0.0
-0.119559   0.00224682   0.0
-0.121171   0.00233516   0.0
-0.122835   0.00237113   0.0
-0.124506   0.00234832   0.0
-0.126132   0.00226007   0.0
-0.127653   0.0020999   0.0
-0.129003   0.00186182   0.0
-0.130108   0.00154088   0.0
-0.130889   0.00113368   0.0
-0.131264   0.000638995   0.0
-0.131148   5.84233e-05   0.0
-0.130461   -0.000602973   0.0
-0.129127   -0.00133605   0.0
-0.127079   -0.00212708   0.0
-0.124267   -0.00295744   0.0
-0.120658   -0.00380363   0.0
-0.116244   -0.00463764   0.0
-0.111046   -0.00542787   0.0
-0.105115   -0.00614065   0.0
-0.0985374   -0.00674225   0.0
-0.0914286   -0.00720153   0.0
-0.0839349   -0.00749267   0.0
-0.0762259   -0.0075981   0.0
-0.0684856   -0.00751088   0.0
-0.0609026   -0.00723653   0.0
-0.0536574   -0.00679381   0.0
-0.0469097   -0.00621452   0.0
-0.0407858   -0.00554216   0.0
-0.0353673   -0.00482974   0.0
-0.0306824   -0.00413649   0.0
-0.0267005   -0.00352373   0.0
-0.0233324   -0.00304934   0.0
-0.0204366   -0.00276069   0.0
-0.0178357   -0.00268536   0.0
-0.0153429   -0.0028199   0.0
-0.0128011   -0.00311748   0.0
-0.0101331   -0.00347727   0.0
-0.00739698   -0.00374122   0.0
-0.00483594   -0.00370528   0.0
-0.00290445   -0.00315039   0.0
-0.0022543   -0.00188959   0.0
-0.00367266   0.000184279   0.0
-0.00798317   0.00307346   0.0
-0.0159369   0.00668558   0.0
-0.0281217   0.0108703   0.0
-0.0449043   0.0154567   0.0
-0.0664053   0.0202734   0.0
-0.0925006   0.0251522   0.0
-0.122845   0.0299286   0.0
-0.156909   0.0344452   0.0
-0.194026   0.0385545   0.0
-0.233424   0.042116   0.0
-0.274251   0.0449953   0.0
-0.315601   0.0470682   0.0
-0.356543   0.0482317   0.0
-0.396163   0.0484163   0.0
-0.433612   0.0475931   0.0
-0.468143   0.0457756   0.0
-0.499139   0.0430136   0.0
-0.526124   0.039385   0.0
-0.548763   0.0349857   0.0
-0.566854   0.0299209   0.0
-0.580305   0.0242996   0.0
-0.589126   0.0182313   0.0
-0.593408   0.0118247   0.0
-0.59331   0.00518829   0.0
-0.589048   -0.00156879   0.0
-0.580888   -0.00833617   0.0
-0.569135   -0.0150022   0.0
-0.554131   -0.021455   0.0
-0.536246   -0.0275846   0.0
-0.515872   -0.033286   0.0
-0.493417   -0.0384631   0.0
-0.469301   -0.0430327   0.0
-0.44394   -0.0469283   0.0
-0.417744   -0.0501036   0.0
-0.391107   -0.0525347   0.0
-0.364396   -0.054221   0.0
-0.337947   -0.0551849   0.0
-0.312055   -0.0554701   0.0
-0.286972   -0.0551383   0.0
-0.262904   -0.0542655   0.0
-0.240008   -0.0529375   0.0
-0.218396   -0.0512454   0.0
-0.198135   -0.0492809   0.0
-0.179254   -0.0471325   0.0
-0.161747   -0.0448821   0.0
-0.145581   -0.0426023   0.0
-0.130699   -0.0403544   0.0
-0.11703   -0.0381872   0.0
-0.104492   -0.0361367   0.0
-0.092998   -0.0342258   0.0
-0.0824616   -0.0324651   0.0
-0.0727986   -0.0308534   0.0
-0.0639311   -0.0293793   0.0
-0.0557897   -0.0280224   0.0
-0.0483142   -0.0267549   0.0
-0.0414548   -0.025543   0.0
-0.0351716   -0.0243492   0.0
-0.0294342   -0.0231331   0.0
-0.0242208   -0.0218538   0.0
-0.0195174   -0.0204705   0.0
-0.015316   -0.0189446   0.0
-0.0116135   -0.0172403   0.0
-0.00841119   -0.015326   0.0
-0.0057132   -0.0131746   0.0
-0.00352666   -0.0107641   0.0
-0.00186147   -0.00807735   0.0
-0.00073058   -0.00510124   0.0
-0.000150264   -0.00182492   0.0
-0.00206371   0.0623915   0.0
-0.0096933   0.146006   0.0
-0.0236484   0.194556   0.0
-0.0424296   0.21349   0.0
-0.0643315   0.209215   0.0
-0.0876057   0.188457   0.0
-0.110629   0.157608   0.0
-0.132042   0.122208   0.0
-0.150842   0.0866032   0.0
-0.16641   0.0538419   0.0
-0.17849   0.0257508   0.0
-0.187128   0.00314008   0.0
-0.192588   -0.0139375   0.0
-0.195277   -0.0259274   0.0
-0.195665   -0.0335525   0.0
-0.194232   -0.0376438   0.0
-0.191432   -0.0390244   0.0
-0.187667   -0.0384395   0.0
-0.183276   -0.0365212   0.0
-0.178539   -0.0337776   0.0
-0.173672   -0.0305981   0.0
-0.168842   -0.0272664   0.0
-0.164171   -0.0239783   0.0
-0.159743   -0.0208595   0.0
-0.155614   -0.0179823   0.0
-0.151818   -0.0153806   0.0
-0.148373   -0.0130613   0.0
-0.145281   -0.0110139   0.0
-0.142541   -0.00921789   0.0
-0.140144   -0.00764717   0.0
-0.138077   -0.00627406   0.0
-0.136328   -0.00507133   0.0
-0.134883   -0.00401368   0.0
-0.13373   -0.00307843   0.0
-0.132858   -0.00224589   0.0
-0.132256   -0.00149941   0.0
-0.131916   -0.000825326   0.0
-0.131829   -0.000212798   0.0
-0.131988   0.000346402   0.0
-0.132384   0.000858071   0.0
-0.133009   0.00132576   0.0
-0.133853   0.00175096   0.0
-0.134903   0.00213325   0.0