# vtk DataFile Version 2.0
Velocidades
ASCII

DATASET RECTILINEAR_GRID
DIMENSIONS   156   312   1

X_COORDINATES   156   double
0.00178477   0.00538925   0.00906403   0.0128099   0.0166278   0.0205184   0.0244826   0.0285211   0.0326346   0.0368239   0.0410896   0.0454325   0.0498532   0.0543523   0.0589304   0.063588   0.0683257   0.0731439   0.0780431   0.0830237   0.0880861   0.0932306   0.0984574   0.103767   0.109159   0.114634   0.120193   0.125834   0.131558   0.137365   0.143256   0.149228   0.155283   0.161421   0.167639   0.17394   0.18032   0.186781   0.193322   0.199941   0.206639   0.213413   0.220264   0.22719   0.23419   0.241263   0.248408   0.255624   0.262909   0.270261   0.27768   0.285163   0.29271   0.300318   0.307985   0.315711   0.323491   0.331326   0.339213   0.347149   0.355133   0.363162   0.371234   0.379347   0.387498   0.395685   0.403905   0.412156   0.420436   0.428741   0.43707   0.445419   0.453786   0.462167   0.470562   0.478966   0.487377   0.495792   0.504208   0.512623   0.521034   0.529438   0.537833   0.546214   0.554581   0.56293   0.571259   0.579564   0.587844   0.596095   0.604315   0.612502   0.620653   0.628766   0.636838   0.644867   0.652851   0.660787   0.668674   0.676509   0.684289   0.692015   0.699682   0.70729   0.714837   0.72232   0.729739   0.737091   0.744376   0.751592   0.758737   0.76581   0.77281   0.779736   0.786587   0.793361   0.800059   0.806678   0.813219   0.81968   0.82606   0.832361   0.838579   0.844717   0.850772   0.856744   0.862635   0.868442   0.874166   0.879807   0.885366   0.890841   0.896233   0.901543   0.906769   0.911914   0.916976   0.921957   0.926856   0.931674   0.936412   0.94107   0.945648   0.950147   0.954567   0.95891   0.963176   0.967365   0.971479   0.975517   0.979482   0.983372   0.98719   0.990936   0.994611   0.998215   
Y_COORDINATES   312   double
0.00355217   0.0106912   0.0179   0.0251788   0.0325282   0.0399485   0.0474401   0.0550035   0.062639   0.0703471   0.0781282   0.0859826   0.0939107   0.101913   0.10999   0.118141   0.126368   0.134671   0.143049   0.151504   0.160035   0.168643   0.177329   0.186092   0.194934   0.203853   0.212851   0.221928   0.231084   0.240319   0.249634   0.25903   0.268505   0.27806   0.287697   0.297414   0.307212   0.317092   0.327053   0.337096   0.347221   0.357427   0.367716   0.378087   0.388541   0.399077   0.409696   0.420398   0.431182   0.44205   0.453   0.464033   0.47515   0.486349   0.497632   0.508997   0.520446   0.531978   0.543592   0.55529   0.56707   0.578933   0.590879   0.602906   0.615017   0.627209   0.639484   0.65184   0.664278   0.676797   0.689397   0.702079   0.71484   0.727683   0.740605   0.753607   0.766688   0.779848   0.793087   0.806404   0.819799   0.833271   0.84682   0.860446   0.874148   0.887925   0.901777   0.915704   0.929705   0.943779   0.957925   0.972144   0.986435   1.0008   1.01523   1.02973   1.0443   1.05894   1.07364   1.08841   1.10325   1.11816   1.13312   1.14815   1.16325   1.1784   1.19362   1.20889   1.22423   1.23962   1.25507   1.27058   1.28614   1.30176   1.31743   1.33315   1.34893   1.36475   1.38062   1.39654   1.41251   1.42853   1.44459   1.46069   1.47683   1.49302   1.50924   1.52551   1.54181   1.55815   1.57453   1.59093   1.60738   1.62385   1.64035   1.65688   1.67344   1.69003   1.70664   1.72328   1.73993   1.75661   1.77331   1.79003   1.80676   1.82351   1.84028   1.85706   1.87385   1.89064   1.90745   1.92427   1.94109   1.95792   1.97475   1.99158   2.00842   2.02525   2.04208   2.05891   2.07573   2.09255   2.10936   2.12615   2.14294   2.15972   2.17649   2.19324   2.20997   2.22669   2.24339   2.26007   2.27672   2.29336   2.30997   2.32656   2.34312   2.35965   2.37615   2.39262   2.40907   2.42547   2.44185   2.45819   2.47449   2.49076   2.50698   2.52317   2.53931   2.55541   2.57147   2.58749   2.60346   2.61938   2.63525   2.65107   2.66685   2.68257   2.69824   2.71386   2.72942   2.74493   2.76038   2.77577   2.79111   2.80638   2.8216   2.83675   2.85185   2.86688   2.88184   2.89675   2.91159   2.92636   2.94106   2.9557   2.97027   2.98477   2.9992   3.01357   3.02786   3.04207   3.05622   3.0703   3.0843   3.09822   3.11208   3.12585   3.13955   3.15318   3.16673   3.1802   3.1936   3.20691   3.22015   3.23331   3.24639   3.2594   3.27232   3.28516   3.29792   3.3106   3.3232   3.33572   3.34816   3.36052   3.37279   3.38498   3.39709   3.40912   3.42107   3.43293   3.44471   3.45641   3.46802   3.47955   3.491   3.50237   3.51365   3.52485   3.53597   3.547   3.55795   3.56882   3.5796   3.5903   3.60092   3.61146   3.62191   3.63228   3.64257   3.65278   3.6629   3.67295   3.68291   3.69279   3.70259   3.7123   3.72194   3.7315   3.74097   3.75037   3.75968   3.76892   3.77807   3.78715   3.79615   3.80507   3.81391   3.82267   3.83136   3.83996   3.8485   3.85695   3.86533   3.87363   3.88186   3.89001   3.89809   3.90609   3.91402   3.92187   3.92965   3.93736   3.945   3.95256   3.96005   3.96747   3.97482   3.9821   3.98931   3.99645   
Z_COORDINATES   1   double
0

POINT_DATA   48672
VECTORS Velocidades double

-0.00845493   0.0168276   0.0
-0.0306661   0.0268529   0.0
-0.0570838   0.0242449   0.0
-0.0786705   0.0167668   0.0
-0.0924749   0.00899445   0.0
-0.0989924   0.00296329   0.0
-0.100125   -0.000898421   0.0
-0.097923   -0.00295531   0.0
-0.0939989   -0.00381414   0.0
-0.0893723   -0.00402979   0.0
-0.0845527   -0.0039973   0.0
-0.0796957   -0.00394843   0.0
-0.0747556   -0.00399022   0.0
-0.0695999   -0.00414962   0.0
-0.0640832   -0.00440906   0.0
-0.0580895   -0.00473044   0.0
-0.0515524   -0.00506936   0.0
-0.0444617   -0.00538306   0.0
-0.0368625   -0.00563453   0.0
-0.0288491   -0.00579443   0.0
-0.020557   -0.00584198   0.0
-0.0121524   -0.00576503   0.0
-0.00382168   -0.00555978   0.0
0.00424021   -0.00523002   0.0
0.01184   -0.00478623   0.0
0.0187966   -0.00424435   0.0
0.0249493   -0.00362454   0.0
0.0301658   -0.00294976   0.0
0.0343469   -0.00224452   0.0
0.0374311   -0.00153359   0.0
0.0393957   -0.000840888   0.0
0.0402573   -0.000188416   0.0
0.0400696   0.000404578   0.0
0.0389203   0.000922378   0.0
0.0369257   0.00135341   0.0
0.0342243   0.00169067   0.0
0.0309692   0.00193202   0.0
0.0273196   0.00208011   0.0
0.023432   0.00214217   0.0
0.0194522   0.0021294   0.0
0.0155069   0.00205601   0.0
0.0116989   0.00193809   0.0
0.00810273   0.00179203   0.0
0.00476473   0.00163278   0.0
0.00170626   0.00147204   0.0
-0.00106922   0.00131644   0.0
-0.00356547   0.00116634   0.0
-0.00578079   0.00101556   0.0
-0.00769559   0.000852569   0.0
-0.00926317   0.000662959   0.0
-0.0104068   0.000433202   0.0
-0.0110249   0.000154781   0.0
-0.0110051   -0.000172097   0.0
-0.0102449   -0.000536278   0.0
-0.0086761   -0.000915898   0.0
-0.00628507   -0.00128164   0.0
-0.00312486   -0.00160263   0.0
0.000687382   -0.00185335   0.0
0.00498691   -0.0020192   0.0
0.00958712   -0.00209857   0.0
0.0143061   -0.00210063   0.0
0.0189855   -0.00204002   0.0
0.0234964   -0.00193041   0.0
0.0277326   -0.00177955   0.0
0.0315952   -0.00158747   0.0
0.0349775   -0.00134809   0.0
0.0377558   -0.00105364   0.0
0.039792   -0.000700137   0.0
0.0409471   -0.000291671   0.0
0.0411027   0.000157893   0.0
0.0401825   0.000626457   0.0
0.0381675   0.00108766   0.0
0.0351008   0.00151587   0.0
0.0310811   0.00189077   0.0
0.0262463   0.00220083   0.0
0.0207502   0.00244522   0.0
0.0147366   0.00263418   0.0
0.00831419   0.00278786   0.0
0.00153649   0.00293323   0.0
-0.00560917   0.00309948   0.0
-0.0132002   0.00331244   0.0
-0.0213649   0.00358971   0.0
-0.0302595   0.00393825   0.0
-0.0400444   0.00435553   0.0
-0.0508652   0.00483302   0.0
-0.0628428   0.00535953   0.0
-0.0760674   0.00592197   0.0
-0.0905926   0.00650361   0.0
-0.106424   0.00708163   0.0
-0.123506   0.00762643   0.0
-0.141706   0.00810358   0.0
-0.160813   0.00847841   0.0
-0.180547   0.0087219   0.0
-0.200574   0.00881584   0.0
-0.220539   0.00875518   0.0
-0.240094   0.00854732   0.0
-0.258926   0.00820977   0.0
-0.276776   0.00776749   0.0
-0.293449   0.0072502   0.0
-0.308824   0.00668953   0.0
-0.322851   0.00611625   0.0
-0.335548   0.00555777   0.0
-0.346984   0.00503626   0.0
-0.35727   0.0045675   0.0
-0.366543   0.00416026   0.0
-0.374947   0.00381633   0.0
-0.38262   0.00353077   0.0
-0.389683   0.00329247   0.0
-0.396224   0.00308493   0.0
-0.40229   0.00288715   0.0
-0.407885   0.00267474   0.0
-0.41296   0.00242117   0.0
-0.417416   0.00209924   0.0
-0.421105   0.00168269   0.0
-0.423837   0.001148   0.0
-0.42539   0.00047626   0.0
-0.425518   -0.000345033   0.0
-0.423972   -0.0013203   0.0
-0.420512   -0.00244466   0.0
-0.414928   -0.00370317   0.0
-0.407055   -0.00507083   0.0
-0.396791   -0.00651324   0.0
-0.384105   -0.00798807   0.0
-0.369052   -0.00944718   0.0
-0.35177   -0.0108392   0.0
-0.332481   -0.0121127   0.0
-0.311485   -0.0132189   0.0
-0.289147   -0.0141154   0.0
-0.265878   -0.0147683   0.0
-0.242119   -0.0151549   0.0
-0.21832   -0.0152648   0.0
-0.194917   -0.0151008   0.0
-0.172312   -0.0146787   0.0
-0.150856   -0.0140257   0.0
-0.130836   -0.0131785   0.0
-0.112467   -0.0121805   0.0
-0.0958866   -0.0110787   0.0
-0.081158   -0.00992062   0.0
-0.0682749   -0.00875156   0.0
-0.0571704   -0.00761213   0.0
-0.0477288   -0.00653681   0.0
-0.0397972   -0.00555295   0.0
-0.0331979   -0.0046805   0.0
-0.0277395   -0.00393207   0.0
-0.0232277   -0.00331324   0.0
-0.0194741   -0.00282275   0.0
-0.0163045   -0.00245271   0.0
-0.0135662   -0.00218851   0.0
-0.011135   -0.00200881   0.0
-0.00892044   -0.00188576   0.0
-0.00687134   -0.00178559   0.0
-0.00497828   -0.00167008   0.0
-0.00327435   -0.001499   0.0
-0.00183197   -0.00123401   0.0
-0.000754692   -0.000844926   0.0
-0.000160926   -0.000320287   0.0
-0.00968824   0.053126   0.0
-0.0378997   0.0902175   0.0
-0.0764044   0.0871254   0.0
-0.113493   0.0659858   0.0
-0.143107   0.0412675   0.0
-0.163519   0.020369   0.0
-0.175557   0.00561039   0.0
-0.181044   -0.00352397   0.0
-0.181821   -0.00862956   0.0
-0.179306   -0.0113438   0.0
-0.174422   -0.0129096   0.0
-0.167682   -0.0141034   0.0
-0.159328   -0.015321   0.0
-0.149449   -0.016701   0.0
-0.138075   -0.01823   0.0
-0.125236   -0.0198166   0.0
-0.110995   -0.0213396   0.0
-0.0954696   -0.022675   0.0
-0.0788358   -0.0237122   0.0
-0.0613267   -0.0243622   0.0
-0.0432246   -0.0245619   0.0
-0.0248506   -0.0242749   0.0
-0.00655279   -0.0234912   0.0
0.0113079   -0.0222253   0.0
0.0283703   -0.0205132   0.0
0.0442862   -0.0184093   0.0
0.0587324   -0.0159825   0.0
0.0714213   -0.0133119   0.0
0.0821111   -0.0104836   0.0
0.0906139   -0.00758674   0.0
0.0968027   -0.00471029   0.0
0.100617   -0.00193984   0.0
0.102067   0.000645352   0.0
0.101232   0.00297528   0.0
0.0982645   0.00499206   0.0
0.0933791   0.00665266   0.0
0.0868472   0.00793134   0.0
0.0789826   0.00882144   0.0
0.070125   0.00933603   0.0
0.0606199   0.00950724   0.0
0.0507984   0.00938368   0.0
0.0409576   0.00902607   0.0
0.0313454   0.00850092   0.0
0.022152   0.00787272   0.0
0.0135099   0.00719522   0.0
0.00550437   0.00650311   0.0
-0.00180766   0.00580587   0.0
-0.00837182   0.00508609   0.0
-0.0141106   0.00430362   0.0
-0.0189035   0.00340627   0.0
-0.0225815   0.0023452   0.0
-0.0249376   0.0010923   0.0
-0.0257568   -0.000344948   0.0
-0.0248587   -0.0019153   0.0
-0.0221434   -0.00352625   0.0
-0.0176286   -0.00505853   0.0
-0.011465   -0.00639026   0.0
-0.00392482   -0.00742394   0.0
0.00463555   -0.00810678   0.0
0.0138275   -0.00843711   0.0
0.0232796   -0.0084545   0.0
0.0326709   -0.00821808   0.0
0.0417382   -0.00778165   0.0
0.0502602   -0.00717472   0.0
0.0580266   -0.00639545   0.0
0.0648061   -0.00541732   0.0
0.0703281   -0.00420626   0.0
0.0742835   -0.00274161   0.0
0.0763489   -0.00103301   0.0
0.0762229   0.000872789   0.0
0.0736661   0.00289677   0.0
0.068532   0.00494162   0.0
0.0607817   0.00690955   0.0
0.0504803   0.00871941   0.0
0.0377762   0.0103201   0.0
0.0228655   0.0116996   0.0
0.00594787   0.0128883   0.0
-0.0128223   0.0139571   0.0
-0.0333797   0.0150073   0.0
-0.0557779   0.0161527   0.0
-0.0801951   0.0174972   0.0
-0.106911   0.0191126   0.0
-0.13626   0.0210257   0.0
-0.168573   0.0232191   0.0
-0.204125   0.0256418   0.0
-0.243083   0.0282194   0.0
-0.285473   0.0308576   0.0
-0.331137   0.0334383   0.0
-0.379707   0.0358175   0.0
-0.430583   0.0378332   0.0
-0.482945   0.0393232   0.0
-0.535796   0.0401512   0.0
-0.588043   0.0402322   0.0
-0.638603   0.0395494   0.0
-0.686499   0.0381554   0.0
-0.730946   0.0361576   0.0
-0.771394   0.0336964   0.0
-0.807539   0.030925   0.0
-0.839299   0.0279936   0.0
-0.866776   0.0250383   0.0
-0.890212   0.0221743   0.0
-0.909943   0.0194913   0.0
-0.926361   0.017052   0.0
-0.939873   0.0148916   0.0
-0.950875   0.0130189   0.0
-0.959729   0.0114178   0.0
-0.966738   0.0100503   0.0
-0.972135   0.00885868   0.0
-0.976071   0.00776923   0.0
-0.97861   0.00669594   0.0
-0.979727   0.00554494   0.0
-0.979309   0.0042194   0.0
-0.977171   0.00262503   0.0
-0.973061   0.000675854   0.0
-0.966684   -0.00169984   0.0
-0.957718   -0.00455377   0.0
-0.945844   -0.00791258   0.0
-0.930763   -0.0117738   0.0
-0.912224   -0.0161034   0.0
-0.890042   -0.020835   0.0
-0.864119   -0.0258712   0.0
-0.834458   -0.0310871   0.0
-0.801165   -0.0363355   0.0
-0.764461   -0.0414538   0.0
-0.724672   -0.0462725   0.0
-0.682227   -0.0506239   0.0
-0.637642   -0.0543516   0.0
-0.591505   -0.0573194   0.0
-0.544454   -0.0594197   0.0
-0.497153   -0.0605799   0.0
-0.450271   -0.0607677   0.0
-0.404453   -0.0599927   0.0
-0.360296   -0.0583065   0.0
-0.318327   -0.0557989   0.0
-0.278986   -0.052592   0.0
-0.242614   -0.0488323   0.0
-0.209439   -0.0446808   0.0
-0.179584   -0.0403033   0.0
-0.153061   -0.0358608   0.0
-0.129787   -0.0315016   0.0
-0.109594   -0.0273548   0.0
-0.0922477   -0.0235263   0.0
-0.0774615   -0.0200958   0.0
-0.0649184   -0.0171165   0.0
-0.0542876   -0.0146143   0.0
-0.0452434   -0.012588   0.0
-0.0374811   -0.0110093   0.0
-0.0307328   -0.00982306   0.0
-0.0247802   -0.00894789   0.0
-0.0194654   -0.00827845   0.0
-0.0146971   -0.00768958   0.0
-0.0104529   -0.00704354   0.0
-0.00677539   -0.00620001   0.0
-0.00376297   -0.00502896   0.0
-0.00155822   -0.003425   0.0
-0.000338972   -0.00132182   0.0
-0.00804203   0.0889164   0.0
-0.033237   0.160869   0.0
-0.0707825   0.165576   0.0
-0.110598   0.135642   0.0
-0.146137   0.0948357   0.0
-0.174266   0.0569709   0.0
-0.194355   0.0276372   0.0
-0.207142   0.00723602   0.0
-0.21383   -0.00618131   0.0
-0.215571   -0.0150334   0.0
-0.213261   -0.0213131   0.0
-0.207536   -0.0263486   0.0
-0.198824   -0.0308778   0.0
-0.187429   -0.0352162   0.0
-0.173588   -0.0394153   0.0
-0.157516   -0.0433812   0.0
-0.139443   -0.0469541   0.0
-0.119625   -0.0499577   0.0
-0.0983512   -0.0522291   0.0
-0.0759515   -0.0536359   0.0
-0.0527864   -0.054085   0.0
-0.0292429   -0.0535262   0.0
-0.0057251   -0.0519522   0.0
0.0173557   -0.0493956   0.0
0.0395904   -0.045925   0.0
0.0605821   -0.0416397   0.0
0.0799545   -0.0366633   0.0
0.0973608   -0.0311387   0.0
0.112491   -0.025222   0.0
0.12508   -0.0190782   0.0
0.134916   -0.0128757   0.0
0.141845   -0.00678285   0.0
0.145784   -0.000963174   0.0
0.146724   0.00442951   0.0
0.144738   0.00925662   0.0
0.139984   0.0134013   0.0
0.132706   0.0167753   0.0
0.123227   0.0193261   0.0
0.111938   0.0210423   0.0
0.0992742   0.0219562   0.0
0.0856925   0.0221428   0.0
0.071641   0.0217129   0.0
0.0575308   0.0208011   0.0
0.0437149   0.0195479   0.0
0.0304764   0.0180796   0.0
0.0180318   0.0164873   0.0
0.00654804   0.0148103   0.0
-0.00382923   0.0130306   0.0
-0.0129448   0.01108   0.0
-0.0206093   0.00886333   0.0
-0.0265913   0.00629206   0.0
-0.0306323   0.00332289   0.0
-0.032485   -1.06589e-05   0.0
-0.031966   -0.00358261   0.0
-0.0290114   -0.00718315   0.0
-0.0237158   -0.010553   0.0
-0.0163433   -0.0134364   0.0
-0.00730162   -0.0156374   0.0
0.00291198   -0.0170587   0.0
0.0137778   -0.0177107   0.0
0.0248128   -0.0176864   0.0
0.0356044   -0.017114   0.0
0.0458118   -0.0161054   0.0
0.0551403   -0.0147178   0.0
0.0633009   -0.0129421   0.0
0.0699743   -0.0107184   0.0
0.074792   -0.00797248   0.0
0.0773447   -0.00465859   0.0
0.0772108   -0.000791949   0.0
0.0739981   0.00353894   0.0
0.0673832   0.00818274   0.0
0.0571389   0.012952   0.0
0.0431451   0.0176569   0.0
0.0253828   0.0221367   0.0
0.00391138   0.0262863   0.0
-0.0211665   0.0300756   0.0
-0.0497519   0.0335593   0.0
-0.0818014   0.0368755   0.0
-0.117373   0.0402265   0.0
-0.156655   0.0438417   0.0
-0.199953   0.0479249   0.0
-0.247652   0.0526044   0.0
-0.300128   0.0579   0.0
-0.357655   0.0637195   0.0
-0.420313   0.0698738   0.0
-0.487888   0.0760951   0.0
-0.559804   0.082047   0.0
-0.635067   0.087337   0.0
-0.712269   0.0915478   0.0
-0.789681   0.0942968   0.0
-0.865432   0.095304   0.0
-0.937726   0.0944419   0.0
-1.00505   0.0917511   0.0
-1.06631   0.0874226   0.0
-1.12082   0.0817579   0.0
-1.16833   0.0751184   0.0
-1.2089   0.0678773   0.0
-1.24285   0.0603831   0.0
-1.27064   0.0529375   0.0
-1.29286   0.045784   0.0
-1.31014   0.0391048   0.0
-1.32309   0.0330219   0.0
-1.33233   0.0276008   0.0
-1.33841   0.0228554   0.0
-1.34179   0.018753   0.0
-1.34288   0.0152203   0.0
-1.34199   0.0121481   0.0
-1.33933   0.00939823   0.0
-1.33502   0.00680941   0.0
-1.32907   0.00420515   0.0
-1.32143   0.00140207   0.0
-1.31195   -0.00178074   0.0
-1.30042   -0.00551168   0.0
-1.28657   -0.00993647   0.0
-1.27013   -0.0151683   0.0
-1.25079   -0.0212789   0.0
-1.22826   -0.0282916   0.0
-1.2023   -0.0361764   0.0
-1.1727   -0.0448477   0.0
-1.13932   -0.0541659   0.0
-1.10212   -0.0639405   0.0
-1.06115   -0.0739379   0.0
-1.01653   -0.0838903   0.0
-0.968513   -0.0935075   0.0
-0.917435   -0.10249   0.0
-0.863732   -0.110544   0.0
-0.807919   -0.117394   0.0
-0.750589   -0.122799   0.0
-0.692387   -0.126568   0.0
-0.633995   -0.128566   0.0
-0.576112   -0.128726   0.0
-0.519424   -0.127058   0.0
-0.464586   -0.123641   0.0
-0.412195   -0.118628   0.0
-0.362769   -0.112231   0.0
-0.316726   -0.104714   0.0
-0.274377   -0.0963722   0.0
-0.235913   -0.0875176   0.0
-0.201409   -0.0784611   0.0
-0.170825   -0.0694959   0.0
-0.144017   -0.0608849   0.0
-0.120759   -0.0528493   0.0
-0.100754   -0.0455621   0.0
-0.0836598   -0.0391433   0.0
-0.0691079   -0.0336572   0.0
-0.0567279   -0.0291114   0.0
-0.0461662   -0.0254559   0.0
-0.0371049   -0.0225849   0.0
-0.0292772   -0.0203387   0.0
-0.0224792   -0.0185114   0.0
-0.0165767   -0.0168612   0.0
-0.0115066   -0.015127   0.0
-0.00727151   -0.0130503   0.0
-0.00392873   -0.0103977   0.0
-0.00157513   -0.00698221   0.0
-0.00032984   -0.00267241   0.0
-0.00626172   0.118066   0.0
-0.0270499   0.224203   0.0
-0.0601537   0.242013   0.0
-0.0978001   0.209726   0.0
-0.134002   0.157638   0.0
-0.165069   0.105082   0.0
-0.189376   0.0612165   0.0
-0.206714   0.0281097   0.0
-0.217608   0.00418884   0.0
-0.222819   -0.0132187   0.0
-0.223082   -0.0265356   0.0
-0.219013   -0.0374763   0.0
-0.21111   -0.0470547   0.0
-0.199786   -0.0557561   0.0
-0.185404   -0.0637215   0.0
-0.168305   -0.0708931   0.0
-0.148831   -0.0771159   0.0
-0.127336   -0.082203   0.0
-0.104191   -0.0859772   0.0
-0.079787   -0.0882956   0.0
-0.0545281   -0.0890627   0.0
-0.0288299   -0.0882365   0.0
-0.00311152   -0.0858289   0.0
0.0222116   -0.0819022   0.0
0.0467341   -0.0765637   0.0
0.0700663   -0.0699586   0.0
0.0918394   -0.0622625   0.0
0.111709   -0.0536741   0.0
0.12936   -0.0444096   0.0
0.144508   -0.034697   0.0
0.156904   -0.0247722   0.0
0.166343   -0.0148755   0.0
0.172668   -0.00524787   0.0
0.175778   0.00387341   0.0
0.175644   0.0122611   0.0
0.172315   0.0197064   0.0
0.165931   0.0260309   0.0
0.156729   0.0310988   0.0
0.14504   0.0348312   0.0
0.131283   0.0372171   0.0
0.115943   0.0383186   0.0
0.099542   0.0382673   0.0
0.0826038   0.0372503   0.0
0.0656224   0.0354838   0.0
0.0490342   0.0331789   0.0
0.0332076   0.0305035   0.0
0.0184482   0.0275511   0.0
0.00502014   0.0243256   0.0
-0.00682542   0.0207498   0.0
-0.0168261   0.0167011   0.0
-0.0247008   0.0120676   0.0
-0.0301668   0.00681089   0.0
-0.032982   0.00101825   0.0
-0.0330032   -0.00507527   0.0
-0.0302428   -0.0111057   0.0
-0.0249051   -0.0166416   0.0
-0.0173851   -0.0212739   0.0
-0.00822696   -0.0247048   0.0
0.00194717   -0.0268057   0.0
0.0125158   -0.027621   0.0
0.022919   -0.0273196   0.0
0.0326843   -0.0261143   0.0
0.0414161   -0.0241792   0.0
0.0487578   -0.021595   0.0
0.0543484   -0.018337   0.0
0.0577912   -0.0143075   0.0
0.0586491   -0.00939621   0.0
0.0564645   -0.00354394   0.0
0.0507954   0.0032138   0.0
0.0412497   0.0107367   0.0
0.0275088   0.0188008   0.0
0.00933416   0.0271394   0.0
-0.0134387   0.0354884   0.0
-0.0409156   0.0436284   0.0
-0.0731658   0.05142   0.0
-0.110252   0.0588315   0.0
-0.152265   0.0659547   0.0
-0.199362   0.0730027   0.0
-0.25179   0.0802753   0.0
-0.309875   0.0880917   0.0
-0.373967   0.0966996   0.0
-0.444339   0.10619   0.0
-0.521054   0.116442   0.0
-0.603821   0.127119   0.0
-0.691866   0.137691   0.0
-0.78384   0.147483   0.0
-0.87782   0.155743   0.0
-0.971447   0.161736   0.0
-1.0622   0.164862   0.0
-1.14775   0.164765   0.0
-1.22621   0.161384   0.0
-1.29632   0.154948   0.0
-1.35744   0.14591   0.0
-1.40948   0.134859   0.0
-1.45275   0.122433   0.0
-1.48784   0.109253   0.0
-1.5155   0.0958727   0.0
-1.53655   0.0827531   0.0
-1.55184   0.0702555   0.0
-1.56217   0.058641   0.0
-1.5683   0.048078   0.0
-1.57091   0.038652   0.0
-1.57058   0.0303754   0.0
-1.56781   0.023197   0.0
-1.56303   0.0170101   0.0
-1.55653   0.0116608   0.0
-1.54854   0.00695476   0.0
-1.53919   0.00266582   0.0
-1.52853   -0.00145578   0.0
-1.51653   -0.00567315   0.0
-1.50307   -0.0102514   0.0
-1.48799   -0.0154452   0.0
-1.47105   -0.0214855   0.0
-1.45201   -0.0285661   0.0
-1.43057   -0.0368316   0.0
-1.40644   -0.0463663   0.0
-1.37934   -0.057186   0.0
-1.34901   -0.0692332   0.0
-1.31524   -0.0823749   0.0
-1.27785   -0.0964056   0.0
-1.23676   -0.111052   0.0
-1.19196   -0.125984   0.0
-1.14352   -0.140824   0.0
-1.09159   -0.155163   0.0
-1.03644   -0.16858   0.0
-0.978429   -0.180655   0.0
-0.917996   -0.190989   0.0
-0.855675   -0.199226   0.0
-0.792073   -0.205072   0.0
-0.727856   -0.208307   0.0
-0.663732   -0.208804   0.0
-0.600428   -0.206538   0.0
-0.538663   -0.201592   0.0
-0.479125   -0.194151   0.0
-0.422439   -0.184501   0.0
-0.369149   -0.173007   0.0
-0.31969   -0.160097   0.0
-0.274376   -0.146235   0.0
-0.233393   -0.131898   0.0
-0.196796   -0.117547   0.0
-0.164519   -0.103605   0.0
-0.136385   -0.0904369   0.0
-0.112129   -0.0783384   0.0
-0.091417   -0.0675218   0.0
-0.0738749   -0.058112   0.0
-0.059109   -0.0501428   0.0
-0.046731   -0.043556   0.0
-0.0363782   -0.0382047   0.0
-0.0277309   -0.033859   0.0
-0.020525   -0.0302184   0.0
-0.0145591   -0.0269316   0.0
-0.00969612   -0.0236234   0.0
-0.00585673   -0.0199292   0.0
-0.00300605   -0.0155323   0.0
-0.0011325   -0.0101975   0.0
-0.000219617   -0.00379175   0.0
-0.00483327   0.140896   0.0
-0.0216682   0.277749   0.0
-0.0499351   0.31101   0.0
-0.0838748   0.28112   0.0
-0.118354   0.22235   0.0
-0.149626   0.158239   0.0
-0.175519   0.101264   0.0
-0.195171   0.0555149   0.0
-0.20857   0.0203114   0.0
-0.216127   -0.00683301   0.0
-0.218391   -0.0284771   0.0
-0.215904   -0.0465526   0.0
-0.20916   -0.0622647   0.0
-0.198605   -0.0762344   0.0
-0.184653   -0.0886872   0.0
-0.167707   -0.0996133   0.0
-0.148173   -0.108883   0.0
-0.12646   -0.116323   0.0
-0.102993   -0.121769   0.0
-0.0782006   -0.125092   0.0
-0.0525186   -0.12622   0.0
-0.0263788   -0.12514   0.0
-0.000204128   -0.121901   0.0
0.0255982   -0.116612   0.0
0.0506415   -0.109427   0.0
0.0745634   -0.100545   0.0
0.0970275   -0.0901927   0.0
0.117723   -0.0786194   0.0
0.136366   -0.0660909   0.0
0.152696   -0.0528831   0.0
0.166474   -0.0392799   0.0
0.177489   -0.0255716   0.0
0.185555   -0.0120543   0.0
0.19052   0.000971806   0.0
0.19228   0.0132063   0.0
0.190783   0.024356   0.0
0.186056   0.0341474   0.0
0.178213   0.0423444   0.0
0.167471   0.0487689   0.0
0.154155   0.0533231   0.0
0.138691   0.0560065   0.0
0.121591   0.0569222   0.0
0.103416   0.0562679   0.0
0.0847461   0.054307   0.0
0.0661359   0.0513236   0.0
0.0480928   0.0475674   0.0
0.0310634   0.0432032   0.0
0.015441   0.0382815   0.0
0.00158354   0.0327438   0.0
-0.0101681   0.0264686   0.0
-0.0194862   0.0193498   0.0
-0.0260763   0.0113855   0.0
-0.0297218   0.00275125   0.0
-0.030345   -0.00617177   0.0
-0.028062   -0.0148311   0.0
-0.023211   -0.0225988   0.0
-0.0163362   -0.0289042   0.0
-0.00812548   -0.0333595   0.0
0.000679209   -0.0358298   0.0
0.00936914   -0.0364236   0.0
0.0173255   -0.0354088   0.0
0.0240312   -0.0330913   0.0
0.0290428   -0.0297026   0.0
0.0319445   -0.0253361   0.0
0.0323082   -0.0199467   0.0
0.0296813   -0.0134093   0.0
0.0236035   -0.00560341   0.0
0.0136413   0.00350982   0.0
-0.000582188   0.0138483   0.0
-0.0193762   0.0252134   0.0
-0.042994   0.0373273   0.0
-0.0716562   0.0498815   0.0
-0.105573   0.0625847   0.0
-0.144958   0.0752036   0.0
-0.190038   0.0875996   0.0
-0.241062   0.0997606   0.0
-0.298308   0.11182   0.0
-0.362086   0.124041   0.0
-0.432706   0.13676   0.0
-0.510395   0.150269   0.0
-0.595169   0.164688   0.0
-0.686667   0.179848   0.0
-0.783984   0.195241   0.0
-0.885563   0.21004   0.0
-0.989185   0.223197   0.0
-1.09211   0.233589   0.0
-1.19141   0.240206   0.0
-1.28432   0.24233   0.0
-1.36866   0.239657   0.0
-1.443   0.232324   0.0
-1.50671   0.220846   0.0
-1.55981   0.205993   0.0
-1.60281   0.188657   0.0
-1.63657   0.169743   0.0
-1.6621   0.15009   0.0
-1.68045   0.130423   0.0
-1.69267   0.111332   0.0
-1.69975   0.0932671   0.0
-1.70257   0.0765463   0.0
-1.70192   0.0613685   0.0
-1.69847   0.0478293   0.0
-1.6928   0.0359355   0.0
-1.68538   0.0256183   0.0
-1.67657   0.0167443   0.0
-1.66667   0.00912549   0.0
-1.65586   0.00252666   0.0
-1.64428   -0.00332619   0.0
-1.63195   -0.00873781   0.0
-1.61885   -0.0140342   0.0
-1.6049   -0.0195517   0.0
-1.58993   -0.0256241   0.0
-1.57376   -0.0325683   0.0
-1.55612   -0.0406693   0.0
-1.53675   -0.0501645   0.0
-1.51532   -0.0612297   0.0
-1.49154   -0.0739662   0.0
-1.46506   -0.0883913   0.0
-1.4356   -0.104432   0.0
-1.40288   -0.121924   0.0
-1.36665   -0.140611   0.0
-1.32674   -0.160156   0.0
-1.28305   -0.180145   0.0
-1.23552   -0.200105   0.0
-1.18423   -0.219521   0.0
-1.12931   -0.237848   0.0
-1.07101   -0.25454   0.0
-1.00968   -0.269067   0.0
-0.945767   -0.28094   0.0
-0.87981   -0.289734   0.0
-0.812438   -0.295111   0.0
-0.744356   -0.296844   0.0
-0.676319   -0.29483   0.0
-0.609115   -0.289107   0.0
-0.543533   -0.279853   0.0
-0.480336   -0.267385   0.0
-0.420225   -0.252145   0.0
-0.36381   -0.234675   0.0
-0.311584   -0.215591   0.0
-0.263907   -0.195543   0.0
-0.220991   -0.175182   0.0
-0.182899   -0.155122   0.0
-0.149558   -0.135909   0.0
-0.120774   -0.117999   0.0
-0.0962531   -0.101732   0.0
-0.0756307   -0.0873303   0.0
-0.0584989   -0.0748834   0.0
-0.0444332   -0.064353   0.0
-0.0330169   -0.0555755   0.0
-0.0238612   -0.0482728   0.0
-0.0166203   -0.042072   0.0
-0.0110003   -0.0365335   0.0
-0.00676092   -0.031191   0.0
-0.00370928   -0.0256015   0.0
-0.00168461   -0.0194003   0.0
-0.000533857   -0.0123546   0.0
-7.87011e-05   -0.00440456   0.0
-0.00376754   0.158764   0.0
-0.0174297   0.322371   0.0
-0.0413831   0.371637   0.0
-0.0714265   0.347149   0.0
-0.103286   0.285261   0.0
-0.133417   0.212507   0.0
-0.159409   0.144225   0.0
-0.179993   0.0866011   0.0
-0.194763   0.0401537   0.0
-0.20384   0.00289353   0.0
-0.207593   -0.0276458   0.0
-0.206468   -0.0534742   0.0
-0.200917   -0.075911   0.0
-0.191377   -0.0956732   0.0
-0.178273   -0.113052   0.0
-0.162031   -0.128079   0.0
-0.143087   -0.140651   0.0
-0.121886   -0.150618   0.0
-0.0988853   -0.157837   0.0
-0.0745444   -0.162212   0.0
-0.0493212   -0.163709   0.0
-0.0236611   -0.162364   0.0
0.00201061   -0.158283   0.0
0.0272963   -0.151635   0.0
0.0518305   -0.142638   0.0
0.075282   -0.131551   0.0
0.097354   -0.118659   0.0
0.117781   -0.104264   0.0
0.136326   -0.0886736   0.0
0.152771   -0.072203   0.0
0.166919   -0.0551678   0.0
0.178584   -0.0378881   0.0
0.187591   -0.0206904   0.0
0.19378   -0.00391118   0.0
0.19701   0.0121028   0.0
0.197172   0.0269977   0.0
0.194204   0.0404218   0.0
0.188111   0.052044   0.0
0.178988   0.0615785   0.0
0.167037   0.0688156   0.0
0.152575   0.073652   0.0
0.136035   0.0761119   0.0
0.117947   0.0763504   0.0
0.0989027   0.0746313   0.0
0.0795197   0.0712783   0.0
0.0604022   0.0666068   0.0
0.0421137   0.0608554   0.0
0.025166   0.0541385   0.0
0.0100219   0.046444   0.0
-0.00289895   0.0376851   0.0
-0.0132243   0.0277977   0.0
-0.0206548   0.0168563   0.0
-0.0250134   0.00516668   0.0
-0.0263078   -0.00670211   0.0
-0.0247821   -0.0179732   0.0
-0.0209332   -0.0278009   0.0
-0.0154731   -0.0354541   0.0
-0.00924084   -0.0404776   0.0
-0.00309371   -0.042768   0.0
0.00218565   -0.0425338   0.0
0.00593456   -0.0401631   0.0
0.00760185   -0.0360577   0.0
0.00670398   -0.0304973   0.0
0.00277847   -0.0235811   0.0
-0.00463628   -0.0152555   0.0
-0.015985   -0.00540279   0.0
-0.0316579   0.00605819   0.0
-0.0519623   0.0191042   0.0
-0.0771262   0.0335934   0.0
-0.107337   0.0492932   0.0
-0.142793   0.065924   0.0
-0.183741   0.0831982   0.0
-0.230481   0.100849   0.0
-0.28335   0.118662   0.0
-0.342694   0.136505   0.0
-0.40884   0.154371   0.0
-0.482069   0.172383   0.0
-0.562562   0.190764   0.0
-0.650302   0.209726   0.0
-0.744931   0.229323   0.0
-0.845578   0.249286   0.0
-0.950722   0.268934   0.0
-1.05814   0.287179   0.0
-1.16502   0.302669   0.0
-1.26824   0.314007   0.0
-1.36478   0.320024   0.0
-1.45213   0.319996   0.0