# vtk DataFile Version 2.0
Temperaturas
ASCII

DATASET RECTILINEAR_GRID
DIMENSIONS   156   312   1

X_COORDINATES   156   double
0.000976704   0.00296457   0.00502244   0.00715246   0.00935683   0.0116378   0.0139977   0.0164387   0.0189634   0.0215741   0.0242731   0.0270631   0.0299464   0.0329257   0.0360034   0.0391822   0.0424647   0.0458533   0.0493508   0.0529598   0.0566829   0.0605227   0.0644818   0.0685627   0.0727681   0.0771004   0.0815622   0.0861559   0.0908839   0.0957484   0.100752   0.105896   0.111184   0.116616   0.122196   0.127924   0.133803   0.139833   0.146016   0.152354   0.158847   0.165496   0.172302   0.179264   0.186384   0.193661   0.201095   0.208685   0.216431   0.224331   0.232384   0.240589   0.248943   0.257444   0.26609   0.274878   0.283805   0.292867   0.302061   0.311382   0.320827   0.33039   0.340066   0.349851   0.359739   0.369724   0.3798   0.38996   0.400198   0.410508   0.420883   0.431314   0.441796   0.45232   0.462879   0.473465   0.484071   0.494689   0.505311   0.515929   0.526535   0.537121   0.54768   0.558204   0.568686   0.579117   0.589492   0.599802   0.61004   0.6202   0.630276   0.640261   0.650149   0.659934   0.66961   0.679173   0.688618   0.697939   0.707133   0.716195   0.725122   0.73391   0.742556   0.751057   0.759411   0.767616   0.775669   0.783569   0.791315   0.798905   0.806339   0.813616   0.820736   0.827698   0.834504   0.841153   0.847646   0.853984   0.860167   0.866197   0.872076   0.877804   0.883384   0.888816   0.894104   0.899248   0.904252   0.909116   0.913844   0.918438   0.9229   0.927232   0.931437   0.935518   0.939477   0.943317   0.94704   0.950649   0.954147   0.957535   0.960818   0.963997   0.967074   0.970054   0.972937   0.975727   0.978426   0.981037   0.983561   0.986002   0.988362   0.990643   0.992848   0.994978   0.997035   0.999023   
Y_COORDINATES   312   double
0.00193644   0.00584325   0.00981846   0.0138631   0.0179783   0.0221651   0.0264246   0.0307579   0.0351661   0.0396503   0.0442117   0.0488513   0.0535705   0.0583703   0.0632518   0.0682164   0.0732651   0.0783992   0.0836199   0.0889284   0.0943259   0.0998137   0.105393   0.111065   0.116831   0.122692   0.12865   0.134706   0.140861   0.147116   0.153473   0.159933   0.166497   0.173167   0.179944   0.186829   0.193823   0.200928   0.208145   0.215476   0.222922   0.230483   0.238162   0.24596   0.253877   0.261916   0.270077   0.278362   0.286772   0.295309   0.303973   0.312766   0.321689   0.330743   0.33993   0.34925   0.358706   0.368297   0.378025   0.387892   0.397899   0.408045   0.418334   0.428764   0.439339   0.450058   0.460923   0.471934   0.483093   0.4944   0.505856   0.517462   0.529218   0.541126   0.553187   0.5654   0.577766   0.590287   0.602962   0.615792   0.628778   0.64192   0.655217   0.668672   0.682283   0.696051   0.709976   0.724059   0.738299   0.752696   0.76725   0.781961   0.796829   0.811853   0.827034   0.84237   0.857861   0.873508   0.889308   0.905262   0.921369   0.937627   0.954037   0.970597   0.987305   1.00416   1.02117   1.03831   1.05561   1.07304   1.09062   1.10834   1.12619   1.14418   1.16231   1.18056   1.19895   1.21747   1.23611   1.25488   1.27377   1.29278   1.31191   1.33115   1.35051   1.36997   1.38954   1.40922   1.42899   1.44887   1.46884   1.4889   1.50906   1.5293   1.54962   1.57002   1.5905   1.61105   1.63167   1.65236   1.67311   1.69392   1.71479   1.7357   1.75667   1.77768   1.79873   1.81981   1.84093   1.86208   1.88326   1.90445   1.92567   1.9469   1.96813   1.98938   2.01062   2.03187   2.0531   2.07433   2.09555   2.11674   2.13792   2.15907   2.18019   2.20127   2.22232   2.24333   2.2643   2.28521   2.30608   2.32689   2.34764   2.36833   2.38895   2.4095   2.42998   2.45038   2.4707   2.49094   2.5111   2.53116   2.55113   2.57101   2.59078   2.61046   2.63003   2.64949   2.66885   2.68809   2.70722   2.72623   2.74512   2.76389   2.78253   2.80105   2.81944   2.83769   2.85582   2.87381   2.89166   2.90938   2.92696   2.94439   2.96169   2.97883   2.99584   3.01269   3.0294   3.04596   3.06237   3.07863   3.09474   3.11069   3.12649   3.14214   3.15763   3.17297   3.18815   3.20317   3.21804   3.23275   3.2473   3.2617   3.27594   3.29002   3.30395   3.31772   3.33133   3.34478   3.35808   3.37122   3.38421   3.39704   3.40971   3.42223   3.4346   3.44681   3.45887   3.47078   3.48254   3.49414   3.5056   3.51691   3.52807   3.53908   3.54994   3.56066   3.57124   3.58167   3.59195   3.6021   3.61211   3.62197   3.6317   3.64129   3.65075   3.66007   3.66926   3.67831   3.68723   3.69603   3.70469   3.71323   3.72164   3.72992   3.73808   3.74612   3.75404   3.76184   3.76952   3.77708   3.78452   3.79185   3.79907   3.80618   3.81317   3.82006   3.82683   3.8335   3.84007   3.84653   3.85288   3.85914   3.86529   3.87135   3.87731   3.88317   3.88894   3.89461   3.90019   3.90567   3.91107   3.91638   3.9216   3.92673   3.93178   3.93675   3.94163   3.94643   3.95115   3.95579   3.96035   3.96483   3.96924   3.97358   3.97783   3.98202   3.98614   3.99018   3.99416   3.99806   
Z_COORDINATES   1   double
0

POINT_DATA   48672
SCALARS Temperaturas double
LOOKUP_TABLE   Temperaturas

0.960172
0.879495
0.797473
0.715724
0.636182
0.560789
0.491208
0.428631
0.373698
0.326517
0.286769
0.253834
0.226924
0.20519
0.187802
0.173997
0.163102
0.154546
0.147851
0.142626
0.138556
0.135389
0.132924
0.131002
0.129499
0.128317
0.127382
0.126632
0.126023
0.12552
0.125095
0.124728
0.124404
0.12411
0.123838
0.123581
0.123335
0.123096
0.122863
0.122633
0.122406
0.12218
0.121956
0.121733
0.121512
0.12129
0.12107
0.120849
0.120629
0.120408
0.120185
0.119961
0.119733
0.119501
0.119263
0.119018
0.118764
0.118501
0.118225
0.117936
0.117632
0.117312
0.116972
0.116613
0.116232
0.115829
0.1154
0.114946
0.114465
0.113955
0.113414
0.112841
0.112232
0.111585
0.110896
0.110161
0.109373
0.108528
0.107618
0.106639
0.105585
0.104455
0.103248
0.101967
0.100622
0.0992272
0.0978027
0.0963774
0.094989
0.0936846
0.0925179
0.0915429
0.0908015
0.0903084
0.0900379
0.0899209
0.0898557
0.0897308
0.0894503
0.0889523
0.0882145
0.0872488
0.0860883
0.0847751
0.0833506
0.0818503
0.0803016
0.0787247
0.0771333
0.0755362
0.0739389
0.0723443
0.0707535
0.0691668
0.0675833
0.0660019
0.064421
0.0628387
0.0612531
0.059662
0.0580634
0.0564551
0.0548353
0.053202
0.0515539
0.0498895
0.0482084
0.04651
0.0447947
0.0430634
0.0413173
0.0395584
0.0377891
0.036012
0.0342303
0.0324472
0.0306659
0.0288899
0.0271222
0.025366
0.0236242
0.0218993
0.0201938
0.01851
0.0168497
0.015215
0.0136074
0.0120288
0.0104808
0.00896489
0.00748273
0.00603594
0.00462612
0.00325487
0.00192374
0.000634195
0.959412
0.877099
0.793217
0.709495
0.628094
0.551202
0.480671
0.417772
0.363108
0.316668
0.277972
0.246242
0.220558
0.199979
0.183622
0.170698
0.160534
0.152568
0.146341
0.141482
0.137693
0.13474
0.132437
0.130637
0.129224
0.12811
0.127224
0.126511
0.125929
0.125445
0.125034
0.124678
0.124361
0.124073
0.123805
0.123551
0.123308
0.123072
0.12284
0.122612
0.122386
0.122162
0.12194
0.121718
0.121498
0.121278
0.121059
0.12084
0.120621
0.120401
0.12018
0.119957
0.119731
0.1195
0.119263
0.119019
0.118767
0.118504
0.118229
0.117941
0.117637
0.117317
0.116978
0.116618
0.116237
0.115833
0.115405
0.11495
0.114468
0.113957
0.113415
0.112841
0.112231
0.111583
0.110892
0.110155
0.109366
0.108519
0.107608
0.106627
0.105571
0.104438
0.103228
0.101944
0.100597
0.0991992
0.0977738
0.09635
0.0949665
0.0936714
0.0925191
0.0915635
0.090845
0.0903745
0.0901213
0.09001
0.0899344
0.0897814
0.0894569
0.0889043
0.0881079
0.0870853
0.0858741
0.0845186
0.0830609
0.0815357
0.0799696
0.0783811
0.0767828
0.0751824
0.0735842
0.0719906
0.0704021
0.0688184
0.0672386
0.0656613
0.0640847
0.0625072
0.0609268
0.0593416
0.0577495
0.0561487
0.0545373
0.0529137
0.0512763
0.049624
0.0479559
0.0462718
0.0445717
0.0428562
0.0411265
0.0393843
0.0376316
0.0358712
0.0341057
0.0323382
0.0305719
0.02881
0.0270556
0.0253117
0.023581
0.0218663
0.0201699
0.018494
0.0168407
0.0152117
0.013609
0.0120341
0.0104886
0.00897436
0.00749285
0.00604577
0.00463482
0.00326169
0.00192809
0.000635688
0.958713
0.874921
0.789376
0.703835
0.620595
0.542052
0.470262
0.406639
0.351829
0.305771
0.267868
0.237198
0.212703
0.193331
0.178116
0.166222
0.156951
0.149738
0.14413
0.13977
0.136378
0.133735
0.131672
0.130055
0.128782
0.127773
0.126965
0.126311
0.125772
0.12532
0.124933
0.124593
0.124289
0.124011
0.12375
0.123502
0.123263
0.123031
0.122803
0.122578
0.122355
0.122134
0.121914
0.121695
0.121478
0.121261
0.121045
0.120829
0.120613
0.120396
0.120178
0.119958
0.119734
0.119506
0.119272
0.11903
0.11878
0.118519
0.118246
0.11796
0.117657
0.117337
0.116999
0.116639
0.116258
0.115853
0.115423
0.114966
0.114482
0.113969
0.113424
0.112847
0.112234
0.111583
0.11089
0.11015
0.109357
0.108507
0.107592
0.106606
0.105546
0.104407
0.10319
0.101899
0.100544
0.0991408
0.0977127
0.0962915
0.0949185
0.0936436
0.0925228
0.0916088
0.0909378
0.0905129
0.0902921
0.0901892
0.0900907
0.0898829
0.0894786
0.0888324
0.0879412
0.0868327
0.085551
0.0841429
0.0826499
0.0811046
0.0795306
0.0779435
0.0763531
0.0747648
0.0731813
0.0716032
0.0700301
0.0684609
0.0668942
0.0653284
0.0637616
0.0621924
0.060619
0.0590401
0.057454
0.0558593
0.0542548
0.0526392
0.0510114
0.0493704
0.0477155
0.0460464
0.044363
0.0426657
0.0409555
0.0392335
0.0375016
0.0357618
0.0340167
0.0322689
0.0305214
0.0287769
0.0270385
0.0253089
0.0235909
0.021887
0.0201996
0.0185308
0.0168828
0.0152573
0.0136563
0.0120815
0.0105346
0.00901745
0.00753173
0.00607927
0.00466192
0.0032816
0.00194022
0.000639752
0.958336
0.873747
0.787285
0.700665
0.616208
0.536411
0.463478
0.398969
0.343632
0.29744
0.259768
0.229619
0.205845
0.187301
0.172942
0.161876
0.153368
0.14683
0.141802
0.137927
0.134934
0.132612
0.130804
0.129387
0.128268
0.127377
0.126659
0.126071
0.125583
0.125169
0.124809
0.124491
0.124202
0.123935
0.123684
0.123443
0.12321
0.122983
0.122759
0.122539
0.12232
0.122103
0.121887
0.121673
0.121459
0.121247
0.121035
0.120824
0.120612
0.1204
0.120187
0.119971
0.119752
0.119528
0.119298
0.11906
0.118814
0.118557
0.118287
0.118002
0.117702
0.117383
0.117045
0.116686
0.116303
0.115897
0.115464
0.115005
0.114517
0.113999
0.11345
0.112867
0.112249
0.111593
0.110894
0.110148
0.10935
0.108494
0.107573
0.10658
0.105511
0.104363
0.103134
0.101831
0.100464
0.0990515
0.0976189
0.0962025
0.0948471
0.0936062
0.0925366
0.0916885
0.0910901
0.090731
0.090553
0.0904557
0.0903188
0.0900326
0.0895235
0.088764
0.0877677
0.0865745
0.0852342
0.0837942
0.082293
0.0807589
0.0792103
0.0776582
0.0761085
0.0745632
0.0730222
0.0714843
0.0699475
0.0684095
0.0668683
0.0653219
0.0637688
0.0622077
0.0606377
0.0590581
0.0574685
0.0558685
0.0542579
0.0526366
0.0510042
0.0493605
0.0477054
0.0460387
0.0443605
0.0426711
0.0409709
0.0392608
0.0375421
0.0358164
0.0340856
0.0323518
0.0306174
0.028885
0.0271569
0.0254359
0.0237243
0.0220246
0.0203391
0.01867
0.0170194
0.0153892
0.0137815
0.0121981
0.010641
0.00911219
0.00761359
0.00614726
0.00471529
0.00331985
0.00196312
0.000647349
0.958301
0.87362
0.786993
0.700053
0.615067
0.534542
0.460759
0.395396
0.339323
0.292607
0.254666
0.224503
0.200932
0.182752
0.168861
0.158311
0.150325
0.144284
0.139708
0.136231
0.133576
0.131537
0.129959
0.128727
0.127755
0.126978
0.126347
0.125827
0.125389
0.125013
0.124682
0.124385
0.124113
0.123858
0.123616
0.123384
0.123158
0.122936
0.122718
0.122502
0.122289
0.122077
0.121866
0.121657
0.121449
0.121243
0.121037
0.120832
0.120626
0.120421
0.120213
0.120004
0.119791
0.119573
0.119349
0.119118
0.118877
0.118624
0.118359
0.118078
0.11778
0.117464
0.117126
0.116767
0.116383
0.115973
0.115537
0.115073
0.114579
0.114054
0.113497
0.112907
0.11228
0.111615
0.110908
0.110155
0.109349
0.108484
0.107554
0.106551
0.10547
0.104308
0.103063
0.101743
0.100359
0.0989326
0.097495
0.0960872
0.0947597
0.0935696
0.0925739
0.091817
0.0913144
0.0910366
0.0909049
0.0908045
0.0906129
0.090232
0.0896091
0.0887401
0.0876573
0.0864114
0.0850548
0.0836318
0.0821751
0.0807056
0.0792349
0.0777681
0.0763056
0.0748456
0.0733846
0.0719186
0.0704437
0.0689564
0.0674538
0.0659336
0.0643946
0.0628362
0.0612586
0.0596627
0.0580497
0.0564212
0.0547788
0.0531244
0.0514593
0.0497848
0.0481018
0.046411
0.0447128
0.0430077
0.041296
0.0395781
0.0378547
0.0361266
0.034395
0.0326612
0.0309269
0.029194
0.0274643
0.0257401
0.0240234
0.0223163
0.0206212
0.01894
0.0172751
0.0156285
0.0140023
0.0123988
0.0108201
0.00926847
0.00774623
0.00625572
0.0047993
0.0033794
0.00199849
0.000659034
0.958542
0.874338
0.788141
0.701488
0.616549
0.535775
0.461464
0.395377
0.338505
0.291033
0.252476
0.221887
0.198092
0.179871
0.166086
0.155746
0.148032
0.142291
0.138016
0.134822
0.132424
0.130607
0.129217
0.12814
0.127293
0.126615
0.126062
0.125602
0.12521
0.124869
0.124565
0.124288
0.124032
0.123789
0.123557
0.123333
0.123114
0.122899
0.122686
0.122477
0.122269
0.122063
0.121859
0.121657
0.121456
0.121256
0.121058
0.12086
0.120663
0.120465
0.120266
0.120065
0.11986
0.119651
0.119435
0.119211
0.118976
0.118731
0.118471
0.118195
0.117901
0.117587
0.11725
0.11689
0.116504
0.116091
0.115649
0.115177
0.114674
0.114139
0.113572
0.11297
0.112332
0.111655
0.110936
0.110171
0.109354
0.108478
0.107536
0.10652
0.105423
0.104243
0.102977
0.101634
0.100229
0.098787
0.0973458
0.0959537
0.094668
0.0935493
0.0926524
0.092012
0.0916245
0.0914365
0.0913476
0.0912319
0.0909731
0.0904939
0.08977
0.0888231
0.0877025
0.0864652
0.0851613
0.0838282
0.0824888
0.0811549
0.0798295
0.0785104
0.0771922
0.075868
0.0745304
0.0731725
0.0717879
0.0703716
0.0689196
0.0674297
0.0659008
0.0643335
0.0627297
0.0610923
0.0594253
0.0577329
0.0560199
0.0542909
0.0525503
0.0508016
0.0490479
0.0472916
0.045534
0.0437763
0.0420187
0.0402616
0.0385047
0.0367483
0.0349923
0.0332371
0.0314834
0.0297319
0.0279839
0.0262406
0.0245036
0.0227747
0.0210557
0.0193488
0.0176561
0.0159798
0.0143224
0.0126861
0.0110737
0.00948768
0.00793064
0.00640531
0.00491437
0.00346054
0.00204649
0.000674858
0.958981
0.875658
0.790312
0.704379
0.619909
0.539263
0.464713
0.398066
0.340419
0.292088
0.252706
0.221416
0.19709
0.17852
0.164554
0.154169
0.14651
0.140891
0.136775
0.133754
0.131526
0.129867
0.128617
0.127659
0.126911
0.126314
0.125825
0.125416
0.125063
0.124752
0.124471
0.124212
0.123969
0.123738
0.123515
0.123298
0.123086
0.122878
0.122672
0.122469
0.122268
0.122069
0.121873
0.121678
0.121485
0.121294
0.121105
0.120917
0.120729
0.120541
0.120352
0.120161
0.119966
0.119767
0.11956
0.119346
0.119121
0.118883
0.11863
0.11836
0.118071
0.11776
0.117424
0.117063
0.116673
0.116254
0.115804
0.115322
0.114808
0.11426
0.113678
0.11306
0.112406
0.111714
0.11098
0.1102
0.109368
0.108477
0.107519
0.106486
0.105371
0.104168
0.102877
0.101507
0.100077
0.0986188
0.0971786
0.0958134
0.0945878
0.0935646
0.0927931
0.092292
0.0920334
0.0919364
0.0918809
0.0917387
0.0914103
0.0908493
0.0900638
0.0891
0.0880188
0.0868771
0.0857173
0.0845651
0.0834315
0.0823166
0.0812141
0.0801135
0.0790028
0.0778696
0.0767022
0.0754902
0.0742246
0.0728987
0.0715075
0.0700486
0.0685216
0.0669283
0.0652729
0.0635609
0.0617997
0.0599975
0.0581631
0.0563052
0.0544321
0.0525514
0.0506693
0.0487909
0.0469196
0.0450578
0.0432065
0.0413659
0.0395355
0.0377144
0.0359015
0.0340959
0.0322966
0.0305033
0.0287158
0.0269342
0.0251594
0.0233923
0.0216344
0.0198874
0.0181532
0.0164343
0.0147332
0.0130524
0.011395
0.00976372
0.00816169
0.00659192
0.0050574
0.00356108
0.00210584
0.000694408
0.959548
0.877364
0.79314
0.70821
0.624498
0.544254
0.469697
0.402654
0.344307
0.295098
0.25479
0.222634
0.197577
0.178444
0.164084
0.153459
0.145685
0.140043
0.135966
0.133022
0.130888
0.129328
0.128172
0.127299
0.126624
0.126087
0.125648
0.125278
0.124956
0.124669
0.124407
0.124163
0.123932
0.123711
0.123496
0.123287
0.123082
0.12288
0.122682
0.122486
0.122292
0.122101
0.121913
0.121727
0.121544
0.121363
0.121184
0.121007
0.12083
0.120654
0.120477
0.120298
0.120115
0.119928
0.119733
0.11953
0.119316
0.119087
0.118843
0.11858
0.118296
0.117988
0.117653
0.117289
0.116895
0.116468
0.116008
0.115513
0.114983
0.114418
0.113817
0.11318
0.112506
0.111794
0.11104
0.110241
0.109391
0.108482
0.107505
0.106452
0.105313
0.104083
0.102762
0.101362
0.0999055
0.0984339
0.097003
0.0956805
0.0945377
0.0936373
0.0930175
0.0926749
0.0925518
0.0925403
0.0925075
0.0923348
0.0919523
0.0913513
0.0905726
0.0896811
0.0887415
0.0878031
0.0868952
0.086028
0.0851983
0.0843936
0.0835969
0.082789
0.0819509
0.0810644
0.0801133
0.0790836
0.0779639
0.0767454
0.0754225
0.0739924
0.0724557
0.0708159
0.0690793
0.067255
0.0653542
0.0633896
0.0613751
0.0593246
0.0572519
0.0551694
0.0530882
0.0510174
0.0489638
0.046932
0.0449248
0.0429431
0.0409862
0.0390525
0.0371398
0.0352455
0.0333671
0.0315024
0.0296494
0.0278068
0.025974
0.0241509
0.0223379
0.0205363
0.0187477
0.0169742
0.0152182
0.0134827
0.0117707
0.0100853
0.00842999
0.00680802
0.00522266
0.00367708
0.00217424
0.000716926
0.960187
0.879292
0.796346
0.712586
0.629813
0.55016
0.475773
0.40848
0.349529
0.299476
0.258214
0.225113
0.199207
0.17937
0.164473
0.153468
0.145451
0.139674
0.135541
0.132595
0.130492
0.128981
0.127879
0.12706
0.126434
0.12594
0.125537
0.125195
0.124897
0.124629
0.124382
0.124149
0.123928
0.123715
0.123508
0.123305
0.123107
0.122912
0.122721
0.122532
0.122347
0.122165
0.121986
0.12181
0.121638
0.121468
0.121301
0.121136
0.120972
0.120809
0.120646
0.120481
0.120313
0.120139
0.119958
0.119768
0.119566
0.119349
0.119114
0.118859
0.11858
0.118275
0.11794
0.117573
0.117172
0.116736
0.116262
0.115751
0.115202
0.114615
0.113991
0.11333
0.112632
0.111895
0.111117
0.110295
0.109422
0.108491
0.107492
0.106414
0.105248
0.103987
0.102633
0.1012
0.0997186
0.0982392
0.0968306
0.0955716
0.0945387
0.09379
0.0933464
0.0931757
0.0931879
0.0932526
0.0932361
0.093044
0.0926468
0.0920764
0.0914011
0.0906957
0.0900193
0.0894067
0.0888686
0.0883976
0.0879739
0.0875718
0.0871629
0.0867193
0.0862147
0.0856255
0.0849313
0.0841148
0.0831622
0.0820636
0.0808126
0.0794067
0.0778473
0.0761396
0.0742926
0.0723186
0.0702331
0.0680536
0.0657994
0.0634906
0.061147
0.0587874
0.0564289
0.054086
0.0517704
0.0494907
0.0472525
0.0450585
0.0429089
0.040802
0.0387347
0.036703
0.0347024
0.0327286
0.0307776
0.028846
0.0269312
0.0250315
0.0231461
0.0212749
0.0194188
0.0175793
0.0157588
0.0139598
0.0121856
0.0104393
0.0087245
0.00704473
0.0054034
0.00380379
0.00224892
0.000741502
0.960859
0.881322
0.799728
0.717224
0.635493
0.556551
0.482466
0.415048
0.355594
0.30476
0.262565
0.228496
0.201682
0.181062
0.165533
0.154052
0.1457
0.139704
0.135443
0.132434
0.130311
0.128806
0.127727
0.126935
0.126338
0.125872
0.125492
0.125171
0.124889
0.124635
0.124398
0.124175
0.123961
0.123755
0.123554
0.123358
0.123166
0.122979
0.122794
0.122614
0.122438
0.122265
0.122096
0.121932
0.121771
0.121614
0.12146
0.121309
0.12116
0.121012
0.120864
0.120715
0.120562
0.120404
0.120239
0.120063
0.119875
0.11967
0.119446
0.119199
0.118925
0.118622
0.118286
0.117915
0.117505
0.117056
0.116566
0.116035
0.115463
0.114851
0.1142
0.11351
0.112783
0.112017
0.111211
0.110361
0.109462
0.108504
0.107479
0.106373
0.105175
0.103881
0.102491
0.101024
0.0995208
0.0980437
0.0966753
0.0955052
0.0946126
0.0940448
0.093798
0.0938059
0.093948
0.0940809
0.0940856
0.0939068
0.0935621
0.0931214
0.0926711
0.0922846
0.0920062
0.0918495
0.091803
0.0918386
0.0919195
0.0920055
0.0920573
0.0920384
0.0919161
0.0916623
0.0912531
0.0906692
0.0898957
0.0889217
0.087741
0.0863516
0.0847561
0.0829615
0.0809791
0.0788243
0.0765164
0.0740775
0.0715322
0.0689065
0.0662268
0.0635187
0.0608062
0.0581106
0.0554499
0.0528382
0.0502856
0.0477982
0.0453785
0.0430259
0.0407372
0.0385074
0.0363307
0.0342004
0.0321103
0.0300544
0.0280278
0.0260264
0.0240475
0.0220894
0.0201516
0.0182347
0.01634
0.0144698
0.0126268
0.0108142
0.00903551
0.00729413
0.00559352
0.00393694
0.00232734
0.000767305
0.961538
0.883374
0.803149
0.721931
0.64129
0.563132
0.489442
0.422002
0.362143
0.310607
0.267526
0.232504
0.204768
0.183325
0.167109
0.155089
0.146337
0.140062
0.135618
0.132498
0.130316
0.128785
0.127701
0.126917
0.126332
0.12588
0.125515
0.125206
0.124935
0.124689
0.12446
0.124244
0.124036
0.123835
0.12364
0.12345
0.123264
0.123083
0.122907
0.122735
0.122568
0.122405
0.122248
0.122095
0.121947
0.121804
0.121664
0.121529
0.121396
0.121265
0.121134
0.121002
0.120867
0.120726
0.120578
0.120418
0.120244
0.120052
0.119839
0.1196
0.119331
0.11903
0.118692
0.118313
0.117893
0.117428
0.116919
0.116364
0.115765
0.115123
0.11444
0.113717
0.112956
0.112157
0.111318
0.110437
0.109507
0.10852
0.107464
0.106326
0.105094
0.103762
0.102335
0.100837
0.0993182
0.0978576
0.0965522
0.0955012
0.0947812
0.0944215
0.0943865
0.0945739
0.0948384
0.0950387
0.095088
0.0949817
0.0947855
0.0945989
0.0945142
0.0945915
0.0948515
0.0952809
0.0958424
0.0964855
0.0971552
0.0977975
0.0983628
0.0988075
0.0990944
0.0991925
0.0990768
0.0987275
0.0981297
0.0972737
0.0961539
0.0947697
0.0931249
0.0912284
0.0890933
0.0867376
0.0841833
0.0814563
0.0785855
0.075602
0.0725381
0.0694259
0.0662965
0.0631785
0.0600972
0.0570736
0.0541241
0.0512598
0.0484875
0.0458091
0.0432231
0.0407248
0.0383075
0.035963
0.0336827
0.0314584
0.0292821
0.0271472
0.0250484
0.0229818
0.0209448
0.0189363
0.0169565
0.0150064
0.0130881
0.0112041
0.00935758
0.00755157
0.00578933
0.00407386
0.00240792
0.000793808
0.962207
0.885394
0.806522
0.726582
0.647043
0.569707
0.496477
0.429098
0.368924
0.316769
0.272867
0.236931
0.208285
0.186008
0.169078
0.156481
0.147287
0.140688
0.13602
0.132753
0.13048
0.128899
0.127788
0.126994
0.126409
0.125961
0.125601
0.125299
0.125034
0.124793
0.124569
0.124357
0.124154
0.123958
0.123768
0.123583
0.123404
0.12323
0.123061
0.122898
0.12274
0.122589
0.122443
0.122303
0.122169
0.122041
0.121917
0.121798
0.121683
0.12157
0.121457
0.121344
0.121228
0.121105
0.120974
0.120832
0.120673
0.120494
0.120292
0.12006
0.119796
0.119495
0.119152
0.118765
0.118331
0.117848
0.117315
0.116733
0.116103
0.115427
0.114708
0.113948
0.11315
0.112313
0.111438
0.110521
0.109557
0.108536
0.107446
0.106273
0.105003
0.103632
0.102167
0.100641
0.0991179
0.0976929
0.0964783
0.0955796
0.0950647
0.0949367
0.0951227
0.095486
0.0958685
0.0961492
0.0962902
0.0963435
0.0964182
0.09663
0.0970631
0.097753
0.0986885
0.0998239
0.101093
0.102422
0.103738
0.104975
0.106075
0.10699
0.107681
0.108119
0.108278
0.108142
0.107699
0.10694
0.105862
0.104467
0.10276
0.100752
0.0984559
0.0958927
0.0930856
0.0900627
0.0868555
0.0834987
0.0800289
0.0764836
0.0729
0.0693137
0.0657573
0.0622594
0.0588436
0.0555282
0.0523256
0.0492428
0.0462816
0.0434395
0.0407103
0.0380857
0.0355556
0.0331096
0.0307372
0.028429
0.0261767
0.0239735
0.0218144
0.0196961
0.0176165
0.0155753
0.013573
0.0116111
0.0096918
0.00781755
0.00599096
0.00421455
0.0024906
0.000820987
0.962855
0.887353
0.809794
0.731102
0.652656
0.576156
0.503427
0.436177
0.375769
0.323077
0.278424
0.241627
0.212102
0.189001
0.171349
0.158154
0.148489
0.141537
0.136614
0.133172
0.130784
0.12913
0.127977
0.127159
0.126563
0.12611
0.12575
0.125449
0.125186
0.124948
0.124727
0.124518
0.124318
0.124125
0.12394
0.12376
0.123587
0.12342
0.123259
0.123105
0.122958
0.122818
0.122684
0.122558
0.122439
0.122326
0.12222
0.122118
0.122021
0.121927
0.121834
0.121741
0.121644
0.121541
0.121428
0.121302
0.121159
0.120994
0.120801
0.120577
0.120316
0.120013
0.119664
0.119265
0.118814
0.118309
0.11775
0.117136
0.116472
0.115758
0.115
0.114199
0.113359
0.112481
0.111566
0.11061
0.109608
0.10855
0.107423
0.106211
0.104902
0.10349
0.101989
0.100442
0.0989288
0.0975629
0.0964709
0.0957599
0.0954809
0.095603
0.0960133
0.0965481
0.0970531
0.097447
0.0977531
0.0980803
0.0985689
0.0993357
0.100442
0.101887
0.10362
0.105558
0.107604
0.109662
0.111642
0.113469
0.115081
0.116433
0.117487
0.118217
0.118605
0.118638
0.118307
0.117611
0.116547
0.115121
0.11334
0.111214
0.108759
0.105996
0.102947
0.0996424
0.0961132
0.0923959
0.0885295
0.0845547
0.0805131
0.0764456
0.0723914
0.0683861
0.0644611
0.0606425
0.0569499
0.053397
0.0499911
0.046734
0.0436226
0.0406496
0.0378054
0.0350784
0.0324564
0.0299275
0.0274804
0.0251056
0.022795
0.0205424
0.0183433
0.0161951
0.0140963
0.0120467
0.0100471
0.00809876
0.00620325
0.00436224
0.00257724
0.000849441
0.963477
0.889233
0.812937
0.735453
0.658072
0.582408
0.510209
0.44314
0.382569
0.329417
0.284087
0.246488
0.216125
0.192221
0.173852
0.160051
0.149899
0.142572
0.137372
0.133733
0.131209
0.129466
0.128256
0.127404
0.126787
0.126323
0.125957
0.125653
0.12539
0.125152
0.124932
0.124725
0.124528
0.124338
0.124157
0.123982
0.123815
0.123655
0.123502
0.123358
0.123221
0.123092
0.122972
0.12286
0.122756
0.12266
0.122571
0.122488
0.12241
0.122336
0.122264
0.12219
0.122113
0.12203
0.121936
0.121827
0.121699
0.121546
0.121363
0.121144
0.120884
0.120577
0.120219
0.119806
0.119335
0.118805
0.118215
0.117567
0.116864
0.11611
0.115308
0.114463
0.113578
0.112657
0.111699
0.110701
0.109658
0.10856
0.107393
0.10614
0.104789
0.103337
0.101803
0.100245
0.0987607
0.097482
0.0965478
0.09606
0.0960441
0.096429
0.0970633
0.0977687
0.0984148
0.098978
0.0995493
0.100287
0.101346
0.102827
0.104754
0.107078
0.109701
0.112501
0.115349
0.118127
0.120736
0.123099
0.125156
0.126867
0.128205
0.12915
0.129694
0.129831
0.129559
0.12888
0.127799
0.12632
0.124454
0.122212
0.11961
0.116665
0.113402
0.109847
0.106032
0.101992
0.0977665
0.0933969
0.0889268
0.0844007
0.0798621
0.0753526
0.0709103
0.0665685
0.062355
0.0582911
0.0543912
0.0506636
0.0471099
0.0437269
0.0405069
0.0374393
0.0345113
0.0317097
0.0290211
0.0264333
0.0239352
0.0215176
0.0191732
0.0168964
0.0146834
0.0125318
0.0104401
0.00840811
0.00643578
0.00452349
0.00267164
0.000880416
0.96407
0.891028
0.81594
0.739615
0.663268
0.588429
0.516776
0.44993
0.389258
0.335719
0.289782
0.251443
0.220288
0.195612
0.176539
0.162133
0.151484
0.143767
0.138273
0.134419
0.131744
0.129898
0.128619
0.127723
0.127078
0.126597
0.126221
0.125911
0.125644
0.125406
0.125186
0.124979
0.124784
0.124597
0.124419
0.124249
0.124088
0.123935
0.123791
0.123655
0.12353
0.123413
0.123306
0.123209
0.123121
0.123042
0.122971
0.122907
0.122849
0.122794
0.122742
0.122689
0.122633
0.122569
0.122493
0.122401
0.122287
0.122145
0.12197
0.121755
0.121494
0.121181
0.120812
0.120381
0.119887
0.119328
0.118704
0.118018
0.117273
0.116474
0.115626
0.114734
0.113803
0.112835
0.111832
0.11079
0.109704
0.108564
0.107354
0.106059
0.104665
0.103174
0.101615
0.100059
0.0986251
0.0974655
0.0967259
0.0964953
0.0967649
0.0974199
0.098277
0.0991606
0.0999851
0.100798
0.101758
0.103058
0.104848
0.107195
0.110068
0.113361
0.116924
0.12059
0.124205
0.127638
0.130787
0.13358
0.13597
0.137929
0.139442
0.140504
0.141117
0.141284
0.141011
0.140305
0.139174
0.137627
0.135673
0.133323
0.130592
0.127496
0.124056
0.120296
0.116246
0.111938
0.107411
0.102703
0.0978604
0.0929271
0.0879494
0.0829726
0.0780398
0.0731905
0.0684594
0.0638756
0.0594614
0.0552324
0.0511973
0.0473584
0.0437124
0.0402518
0.0369654
0.0338401
0.0308617
0.0280162
0.0252902
0.0226718
0.0201506
0.0177182
0.0153677
0.0130941
0.0108936
0.00876357
0.00670206
0.00470769
0.00277929
0.000915711
0.964636
0.892738
0.818802
0.743586
0.668237
0.594208
0.523109
0.456521
0.395802
0.341939
0.295464
0.256445
0.224548
0.199133
0.179375
0.16437
0.153221
0.145105
0.139303
0.13522
0.13238
0.130417
0.129059
0.12811
0.127431
0.126928
0.126538
0.12622
0.125948
0.125707
0.125485
0.125279
0.125085
0.124901
0.124726
0.124561
0.124405
0.124259
0.124123
0.123998
0.123883
0.123779
0.123685
0.123603
0.123531
0.123469
0.123416
0.123371
0.123332
0.123299
0.123267
0.123234
0.123197
0.123152
0.123094
0.123017
0.122916
0.122785
0.122616
0.122403
0.122139
0.121818
0.121434
0.120982
0.120461
0.119869
0.119208
0.11848
0.11769
0.116843
0.115947
0.115006
0.114026
0.113011
0.111961
0.110874
0.109743
0.108559
0.107305
0.105966
0.10453
0.103004
0.101427
0.09989
0.098534
0.0975284
0.0970207
0.0970782
0.0976502
0.0985785
0.0996599
0.100742
0.101803
0.102971
0.104459
0.106479
0.109155
0.112496
0.116406
0.120709
0.1252
0.129674
0.133959
0.137921
0.141469
0.144546
0.147125
0.149196
0.150764
0.151838
0.152432
0.152559
0.152232
0.151463
0.150262
0.148639
0.146603
0.144164
0.141333
0.138123
0.134553
0.130641
0.126415
0.121903
0.117139
0.112163
0.107017
0.101744
0.096393
0.0910095
0.0856398
0.0803279
0.0751139
0.0700333
0.0651157
0.0603842
0.055855
0.0515376
0.0474349
0.0435441
0.0398578
0.0363651
0.0330528
0.0299064
0.0269114
0.0240538
0.0213209
0.0187012
0.0161852
0.0137648
0.0114335
0.00918596
0.00701799
0.00492595
0.00290675
0.00095748
0.965173
0.894365
0.821528
0.747373
0.672985
0.599748
0.529208
0.462904
0.402184
0.348057
0.301106
0.261466
0.228875
0.202757
0.182336
0.166741
0.155093
0.146571
0.140451
0.136126
0.133109
0.131019
0.129572
0.128563
0.127843
0.127313
0.126906
0.126577
0.126299
0.126053
0.12583
0.125624
0.12543
0.125248
0.125077
0.124916
0.124766
0.124627
0.124499
0.124383
0.124278
0.124187
0.124107
0.124039
0.123983
0.123938
0.123903
0.123877
0.123858
0.123844
0.123832
0.123819
0.123801
0.123774
0.123732
0.12367
0.123581
0.123458
0.123294
0.123081
0.122811
0.122479
0.122077
0.121602
0.121051
0.120423
0.11972
0.118946
0.118108
0.117211
0.116263
0.115272
0.114243
0.113179
0.112081
0.110948
0.109773
0.108544
0.107246
0.105863
0.104386
0.102829
0.101246
0.0997487
0.0985002
0.0976852
0.0974456
0.0978173
0.0987033
0.0999065
0.10122
0.102537
0.103915
0.105559
0.107726
0.110619
0.114313
0.118742
0.123726
0.129018
0.134357
0.139514
0.14431
0.148626
0.152394
0.155584
0.158195
0.160241
0.161747
0.162737
0.163237
0.163269
0.162852
0.162
0.160724
0.159033
0.156935
0.154436
0.151543
0.148266
0.144617
0.140612
0.136271
0.13162
0.12669
0.121515
0.116137
0.110598
0.104945
0.0992251
0.0934857
0.0877733
0.0821317
0.0766011
0.0712169
0.0660088
0.061
0.0562071
0.0516401
0.0473023
0.0431917
0.0393014
0.0356208
0.0321371
0.0288358
0.0257022
0.022722
0.0198817
0.017169
0.0145731
0.0120848
0.00969591
0.00739952
0.00518958
0.0030607
0.00100793
0.965686
0.895916
0.824126
0.750986